/*--------------------------------*- C++ -*----------------------------------*\
| =========                 |                                                 |
| \\      /  F ield         | OpenFOAM: The Open Source CFD Toolbox           |
|  \\    /   O peration     | Version:  2312                                  |
|   \\  /    A nd           | Website:  www.openfoam.com                      |
|    \\/     M anipulation  |                                                 |
\*---------------------------------------------------------------------------*/
FoamFile
{
    version     2.0;
    format      ascii;
    arch        "LSB;label=32;scalar=64";
    class       volScalarField;
    location    "0.3";
    object      p;
}
// * * * * * * * * * * * * * * * * * * * * * * * * * * * * * * * * * * * * * //

dimensions      [0 2 -2 0 0 0 0];

internalField   nonuniform List<scalar> 
900
(
-2.0315712e-08
-0.00024793647
-0.00036007369
-0.00030412591
-6.0497437e-05
0.00037046899
0.00097839179
0.0017505844
0.0026737877
0.00373384
0.0049152823
0.0062011948
0.0075731942
0.009011526
0.010495211
0.012002239
0.013509797
0.014994509
0.016432715
0.017800817
0.019075625
0.020234721
0.021256751
0.022121623
0.022810508
0.023306027
0.023594709
0.023675638
0.02357063
0.023316165
0.00024608928
-4.2443333e-06
-7.5224226e-05
1.5862338e-05
0.00027088175
0.00069548548
0.0012859905
0.0020337048
0.0029276
0.0039547559
0.0051004705
0.0063483836
0.0076805986
0.0090778228
0.010519532
0.011984173
0.013449403
0.014892317
0.016289741
0.017618584
0.018856206
0.019980819
0.020971919
0.021810765
0.022480892
0.022969065
0.023268702
0.023385068
0.023321984
0.023065084
0.00036333529
6.1044226e-05
-1.4452777e-05
8.384372e-05
0.00034189533
0.00076494909
0.0013506113
0.0020912215
0.0029765935
0.0039944085
0.0051303674
0.0063683916
0.0076907959
0.009078452
0.010510967
0.011966888
0.013423932
0.014859237
0.016249653
0.017572096
0.018803935
0.019923421
0.020910185
0.021745801
0.022414355
0.022903367
0.023207355
0.023331129
0.023262535
0.022951611
0.00031753886
-3.9009398e-05
-0.0001319851
-3.6578113e-05
0.00022227854
0.00064790702
0.0012373491
0.0019827968
0.0028741938
0.003899389
0.0050441926
0.0062925698
0.0076268216
0.0090277556
0.010474866
0.011946532
0.013420241
0.014872849
0.016280878
0.017620862
0.018869746
0.02000534
0.021006837
0.02185541
0.022534712
0.023031603
0.02333967
0.023461681
0.023374737
0.02300739
8.3534874e-05
-0.00031313036
-0.00042170919
-0.00032975836
-6.8262905e-05
0.00036481012
0.00096578899
0.0017264281
0.0026364715
0.0036836393
0.004853599
0.0061301342
0.0074953192
0.0089296842
0.010412388
0.011921406
0.013433739
0.014925675
0.016373088
0.017751773
0.019037847
0.020208229
0.021241179
0.022116919
0.022818104
0.023330451
0.023646353
0.023767166
0.023664234
0.02325455
-0.00034844856
-0.00077750435
-0.00089939036
-0.0008092432
-0.00054153355
-9.4918549e-05
0.00052629074
0.001313285
0.0022553875
0.0033399474
0.0045522556
0.0058756906
0.0072918814
0.008780862
0.010321231
0.01189032
0.013464389
0.015018872
0.016528662
0.017968443
0.019313086
0.020538151
0.021620457
0.022538749
0.023274187
0.023810991
0.024140298
0.024262679
0.024146376
0.023701531
-0.0009827828
-0.0014433516
-0.0015774768
-0.0014867471
-0.0012083179
-0.00074121109
-9.032682e-05
0.00073486237
0.0017230826
0.0028611049
0.0041336286
0.0055234154
0.00701144
0.0085770313
0.010198013
0.011850848
0.01351081
0.015152198
0.0167486
0.018273204
0.019699206
0.02100031
0.022151362
0.023129073
0.023912585
0.024484219
0.024833736
0.024961268
0.024832848
0.024352801
-0.0018263848
-0.0023217585
-0.0024680399
-0.0023740875
-0.0020798987
-0.0015847364
-0.00089410919
-1.8274583e-05
0.0010307257
0.0022388884
0.0035901182
0.0050663593
0.0066477387
0.0083126903
0.010038071
0.011799276
0.013570366
0.015324245
0.017032881
0.018667594
0.020199445
0.021599761
0.022840815
0.02389665
0.02474377
0.02536208
0.025739696
0.025876441
0.02573609
0.025216338
-0.0028907926
-0.003426793
-0.0035859722
-0.0034861431
-0.0031707752
-0.002639403
-0.0018982581
-0.00095856214
0.00016667759
0.0014624765
0.0029117384
0.0044953968
0.0061925526
0.0079805791
0.0098352079
0.011730597
0.013639415
0.015532939
0.017381231
0.01915337
0.020817816
0.022342934
0.023697738
0.024852841
0.025781324
0.026459959
0.026874757
0.027025165
0.026872212
0.026305396
-0.0041921486
-0.0047763237
-0.0049497744
-0.0048413876
-0.0044989985
-0.0039225644
-0.003119255
-0.0021015103
-0.00088355034
0.00051842289
0.0020860934
0.0037991907
0.0056356279
0.0075715834
0.0095815464
0.011638327
0.013713068
0.015775255
0.017792796
0.019732183
0.021558786
0.023237365
0.024732872
0.026011546
0.027042033
0.02779699
0.0282596
0.028428684
0.028261815
0.027638399
-0.0057511195
-0.0063925187
-0.0065821019
-0.0064623158
-0.0060864731
-0.005455218
-0.0045769821
-0.0034657701
-0.00213733
-0.00060936286
0.0010983524
0.0029641452
0.0049645961
0.0070745933
0.0092673263
0.011514217
0.01378484
0.016046795
0.018265675
0.020405076
0.022426795
0.024291285
0.025958488
0.027389105
0.028546016
0.029396409
0.02991957
0.030113235
0.029930642
0.029238937
-0.0075931342
-0.0083024727
-0.008510478
-0.0083761027
-0.0079595172
-0.0072624546
-0.0062950673
-0.0050733884
-0.0036151014
-0.0019397541
-6.8867169e-05
0.0019742849
0.004164826
0.0064763081
0.00888064
0.011347917
0.013846213
0.016341283
0.018796342
0.021171882
0.023425684
0.025513144
0.027388103
0.029004267
0.030316999
0.031286143
0.031885518
0.032111009
0.03191042
0.031136151
-0.0097489406
-0.010539041
-0.01076818
-0.010615423
-0.010149558
-0.009374007
-0.0083012898
-0.0069500901
-0.0053405577
-0.0034945242
-0.0014355843
0.00081116805
0.0032193024
0.0057610503
0.0084071553
0.011126576
0.013886122
0.016649902
0.019378884
0.022030401
0.024557872
0.026910901
0.029035982
0.030878032
0.032382579
0.033499506
0.03419485
0.034461388
0.034240025
0.033365459
-0.012255499
-0.013141994
-0.013395414
-0.013219498
-0.012693993
-0.011824904
-0.010628034
-0.0091255611
-0.0073407946
-0.0052984058
-0.003024465
-0.00054612086
0.0021085758
0.0049106316
0.0078298621
0.010834443
0.013890349
0.016960503
0.020004018
0.02297527
0.025823186
0.028490928
0.030916297
0.033033236
0.034774389
0.036076012
0.036892904
0.037212645
0.03696712
0.035969669
-0.015157284
-0.016159667
-0.016440931
-0.016235495
-0.015637299
-0.014656276
-0.013312815
-0.01163373
-0.0096464066
-0.0073790555
-0.0048607129
-0.0021208449
0.00081084586
0.003904335
0.0071289068
0.010452494
0.013840891
0.017256667
0.020657862
0.023996488
0.027217213
0.030256365
0.033041717
0.035493668
0.037528021
0.039062264
0.040034742
0.040424295
0.040150487
0.039000504
-0.018508165
-0.019651335
-0.019964312
-0.019720442
-0.019032487
-0.017916359
-0.016398871
-0.014513024
-0.012291472
-0.0097668516
-0.0069717563
-0.0039382667
-0.00069773555
0.0027190891
0.0062815234
0.009958001
0.013715264
0.017516648
0.021320439
0.025077474
0.028729003
0.032204652
0.035421099
0.038282375
0.040682429
0.042512807
0.043687459
0.044170418
0.043863401
0.042520647
-0.022374167
-0.023690734
-0.024039267
-0.023743861
-0.022943016
-0.021661724
-0.019935808
-0.01780653
-0.015313346
-0.012494426
-0.0093866262
-0.0060249694
-0.0024424189
0.0013299428
0.0052621791
0.0093244598
0.013485914
0.017712302
0.021963968
0.026192637
0.030337952
0.034323933
0.038055829
0.041418614
0.044278327
0.0464907
0.047933196
0.048544576
0.048198792
0.046606564
-0.026837677
-0.028371413
-0.028758445
-0.028391455
-0.027445304
-0.02595876
-0.02398024
-0.021561973
-0.018752154
-0.015595818
-0.012134906
-0.0084077176
-0.0044487298
-0.00028891185
0.0040436349
0.0085224476
0.013120338
0.017808201
0.022551034
0.027304439
0.032009688
0.036587901
0.040934125
0.044912542
0.048354619
0.051067131
0.052872827
0.053667116
0.053277476
0.051352582
-0.0320042
-0.033815102
-0.034240589
-0.033770223
-0.032631996
-0.030885422
-0.028596344
-0.025831387
-0.022649818
-0.019105083
-0.015245096
-0.011111741
-0.0067407815
-0.0021623011
0.0025984889
0.0075199481
0.012581463
0.017761278
0.023032793
0.028360003
0.033690806
0.038948572
0.04402224
0.048756035
0.052940967
0.056318493
0.058629847
0.059696105
0.059261735
0.056877356
-0.038013912
-0.040185145
-0.040641228
-0.040015563
-0.03861613
-0.036533173
-0.033856158
-0.030670237
-0.027048386
-0.023054102
-0.018742124
-0.01415809
-0.0093386323
-0.0043120125
0.00090086707
0.0062849638
0.011828608
0.017520781
0.023347786
0.029287787
0.03530263
0.041326566
0.047251263
0.052907239
0.058043215
0.062317711
0.065353152
0.066844218
0.066379699
0.063336612
-0.045062932
-0.04770862
-0.048168682
-0.047300909
-0.045536184
-0.043008846
-0.039839233
-0.036135561
-0.031987199
-0.027469192
-0.022643684
-0.0175599
-0.012254591
-0.0067530072
-0.0010701532
0.004787625
0.010820072
0.017030227
0.023422155
0.029995169
0.036734754
0.04359899
0.050498143
0.057265177
0.063615364
0.069111996
0.073212881
0.07540302
0.074970596
0.070953891
-0.053445322
-0.056713379
-0.057107631
-0.055850188
-0.053561496
-0.050435564
-0.04663061
-0.042282084
-0.037497919
-0.032365603
-0.026954572
-0.021316755
-0.015487649
-0.009487856
-0.0033246824
0.0030062966
0.0095187524
0.016232212
0.023173135
0.030369191
0.037840712
0.045586751
0.053560931
0.061630497
0.069508201
0.076671199
0.082372509
0.085767038
0.085561014
0.080096331
-0.063640344
-0.067690293
-0.067852356
-0.065952089
-0.062895854
-0.058949987
-0.054314203
-0.049153403
-0.043594717
-0.037737505
-0.031656923
-0.025405346
-0.019014495
-0.012497927
-0.0058531955
0.00093689805
0.0079026823
0.015078788
0.022519481
0.030285642
0.038442581
0.047049229
0.056135553
0.06565556
0.075389075
0.084790704
0.092917196
0.098449039
0.098991829
0.09146786
-0.076500157
-0.081394943
-0.080946533
-0.077968906
-0.073770585
-0.06868656
-0.062952368
-0.056759721
-0.050252042
-0.043536918
-0.036690798
-0.029761694
-0.022773021
-0.015727594
-0.0086107061
-0.0013903309
0.0059855929
0.013552439
0.021406102
0.029637056
0.038359805
0.047707323
0.057819729
0.068807824
0.080641654
0.092927809
0.1046934
0.11406543
0.11668026
0.10668013
-0.09366451
-0.099005561
-0.097100649
-0.092304016
-0.086391271
-0.079714544
-0.072520704
-0.065015297
-0.057347476
-0.049623189
-0.041910333
-0.0342432
-0.026628952
-0.019053786
-0.011487235
-0.0038840346
0.0038129976
0.01170139
0.019853605
0.028396006
0.037489018
0.047338591
0.058210887
0.070434147
0.084324946
0.099968253
0.11688246
0.13298647
0.1409555
0.12975835
-0.11844589
-0.12235876
-0.11710185
-0.10921765
-0.10072769
-0.091826532
-0.082709713
-0.073562842
-0.064512942
-0.055640547
-0.046984547
-0.038548457
-0.030310104
-0.02222996
-0.01425635
-0.0063264476
0.0016333703
0.0097218606
0.018037231
0.026718916
0.035953072
0.045995617
0.05721892
0.070175004
0.08563086
0.10452511
0.1277788
0.15443464
0.17443514
0.16876929
-0.15746381
-0.15411507
-0.14146205
-0.12830863
-0.11595404
-0.1040158
-0.092477875
-0.081415622
-0.070862234
-0.060817975
-0.051253492
-0.042114739
-0.033333203
-0.024833971
-0.016541151
-0.0083707241
-0.00023917534
0.0079557506
0.016330154
0.02502395
0.034239583
0.044259317
0.055534822
0.068820064
0.085372038
0.10724933
0.13760509
0.17824035
0.21854879
0.23334623
-0.22453277
-0.19606476
-0.1687629
-0.14711503
-0.1292742
-0.11362464
-0.099545198
-0.086717332
-0.074920417
-0.063996399
-0.053807161
-0.044220527
-0.035114864
-0.026380791
-0.017918347
-0.0096315549
-0.0014266483
0.0067984765
0.015170982
0.023841577
0.033024359
0.043049193
0.05447221
0.068304224
0.086436135
0.11242555
0.1523759
0.21153668
0.27966822
0.34297645
-0.36016149
-0.24079307
-0.18648459
-0.155805
-0.13307928
-0.11489176
-0.099863576
-0.086726017
-0.0748161
-0.063876054
-0.053727812
-0.044203887
-0.035164697
-0.026496187
-0.018098041
-0.0098757426
-0.001735172
0.0064262753
0.014737263
0.023359485
0.032526532
0.0426391
0.054397095
0.069132084
0.089468621
0.12067278
0.17260727
0.25699779
0.37877219
0.59502289
-0.64989737
-0.27322132
-0.15759689
-0.13034648
-0.11171123
-0.096911272
-0.086154012
-0.07678721
-0.067587201
-0.058539812
-0.049745751
-0.041205198
-0.032893099
-0.024779117
-0.01681971
-0.0089579482
-0.001125179
0.0067613348
0.014804268
0.023167427
0.032097154
0.041974876
0.053520584
0.068120764
0.08857631
0.12078214
0.17723268
0.2833986
0.51042626
1.0593557
)
;

boundaryField
{
    movingWall
    {
        type            zeroGradient;
    }
    fixedWalls
    {
        type            zeroGradient;
    }
    frontAndBack
    {
        type            empty;
    }
}


// ************************************************************************* //
