/*--------------------------------*- C++ -*----------------------------------*\
| =========                 |                                                 |
| \\      /  F ield         | OpenFOAM: The Open Source CFD Toolbox           |
|  \\    /   O peration     | Version:  2312                                  |
|   \\  /    A nd           | Website:  www.openfoam.com                      |
|    \\/     M anipulation  |                                                 |
\*---------------------------------------------------------------------------*/
FoamFile
{
    version     2.0;
    format      ascii;
    arch        "LSB;label=32;scalar=64";
    class       surfaceScalarField;
    location    "0.3";
    object      phi;
}
// * * * * * * * * * * * * * * * * * * * * * * * * * * * * * * * * * * * * * //

dimensions      [0 3 -1 0 0 0 0];

oriented        oriented;

internalField   nonuniform List<scalar> 
1740
(
-2.235054e-06
2.2352169e-06
-1.5266235e-05
1.303119e-05
-3.5361457e-05
2.0095237e-05
-5.8280278e-05
2.2918838e-05
-8.1593046e-05
2.3312775e-05
-0.00010411085
2.2517786e-05
-0.00012525293
2.1142048e-05
-0.0001446875
1.9434536e-05
-0.00016217105
1.748352e-05
-0.00017749392
1.5322847e-05
-0.00019046839
1.2974467e-05
-0.00020092898
1.0460588e-05
-0.0002087347
7.8057179e-06
-0.00021377114
5.0364395e-06
-0.00021595225
2.1811266e-06
-0.00021522217
-7.3005969e-07
-0.00021155705
-3.6651177e-06
-0.00020496712
-6.5899394e-06
-0.00019549883
-9.4683088e-06
-0.00018323666
-1.226221e-05
-0.00016830427
-1.4932436e-05
-0.00015086513
-1.7439157e-05
-0.00013112514
-1.973999e-05
-0.00010934802
-2.1777106e-05
-8.5915401e-05
-2.343261e-05
-6.1495422e-05
-2.4419974e-05
-3.740808e-05
-2.4087305e-05
-1.6255344e-05
-2.115266e-05
-2.4777407e-06
-1.3777521e-05
-2.4776477e-06
-1.3016794e-05
1.5252022e-05
-4.617854e-05
4.6192962e-05
-9.1252052e-05
6.5168758e-05
-0.00014156801
7.3234783e-05
-0.0001928034
7.4548159e-05
-0.00024250793
7.2222286e-05
-0.0002893135
6.7947584e-05
-0.00033237372
6.2494719e-05
-0.00037107604
5.6185818e-05
-0.00040492282
4.916961e-05
-0.00043349069
4.1542327e-05
-0.00045641958
3.3389496e-05
-0.00047341121
2.4797366e-05
-0.00048423004
1.5855286e-05
-0.00048870515
6.6562483e-06
-0.00048673299
-2.702204e-06
-0.00047828047
-1.2117656e-05
-0.0004633888
-2.1481668e-05
-0.00044217704
-3.068014e-05
-0.00041484651
-3.9592809e-05
-0.00038168545
-4.8093537e-05
-0.00034307583
-5.6048794e-05
-0.00029950943
-6.3306379e-05
-0.00025163478
-6.9651737e-05
-0.00020038519
-7.468218e-05
-0.00014727797
-7.7527182e-05
-9.4982177e-05
-7.6383132e-05
-4.8098954e-05
-6.803605e-05
-1.359798e-05
-4.8278715e-05
-1.6075528e-05
-2.0515474e-05
3.576751e-05
-6.6631853e-05
9.2309352e-05
-0.00012687102
0.00012540792
-0.00019311954
0.00013948327
-0.00026025624
0.00014168482
-0.00032531266
0.00013727867
-0.00038655864
0.00012919353
-0.00044288061
0.00011881667
-0.00049346117
0.00010676637
-0.00053764129
9.3349746e-05
-0.00057486875
7.8769807e-05
-0.00060468095
6.3201714e-05
-0.00062669993
4.6816379e-05
-0.00064063156
2.9786934e-05
-0.00064626634
1.2291034e-05
-0.00064348149
-5.4870647e-06
-0.0006322445
-2.3354658e-05
-0.00061261718
-4.1109034e-05
-0.00058476089
-5.8536488e-05
-0.00054894275
-7.5410995e-05
-0.00050554306
-9.1493253e-05
-0.00045506634
-0.00010652552
-0.00039816463
-0.00012020811
-0.0003356965
-0.00013211994
-0.00026887514
-0.00014150358
-0.00019960192
-0.00014680035
-0.00013109628
-0.00014488869
-6.8797687e-05
-0.00013033464
-2.1162435e-05
-9.5913966e-05
-3.7237943e-05
-2.4396224e-05
6.0163734e-05
-7.8210012e-05
0.00014612312
-0.0001475347
0.0001947326
-0.00022312478
0.00021507332
-0.00029938388
0.00021794389
-0.00037311674
0.00021101151
-0.0004424493
0.00019852607
-0.00050615539
0.00018252276
-0.00056332392
0.00016393492
-0.00061321862
0.00014324447
-0.00065522515
0.00012077637
-0.0006888323
9.6808868e-05
-0.00071362514
7.1609219e-05
-0.00072928263
4.5444429e-05
-0.00073557727
1.858566e-05
-0.00073237619
-8.6881694e-06
-0.00071964428
-3.6086617e-05
-0.00069744888
-6.3304479e-05
-0.00066596652
-9.0018882e-05
-0.00062549085
-0.0001158867
-0.00057644227
-0.00014054187
-0.00051938155
-0.00016358628
-0.00045503568
-0.00018455404
-0.00038435938
-0.0002027963
-0.00030868759
-0.00021717543
-0.00023008382
-0.00022540418
-0.0001520239
-0.00022294865
-8.0462872e-05
-0.00020189557
-2.5034516e-05
-0.00015134229
-6.2272498e-05
-2.649746e-05
8.6661182e-05
-8.516092e-05
0.00020478653
-0.00016047535
0.00027004701
-0.00024227143
0.00029686938
-0.0003245509
0.00030022334
-0.00040395286
0.00029041347
-0.00047852191
0.00027309514
-0.000546978
0.00025097886
-0.00060836714
0.00022532408
-0.00066191819
0.00019679554
-0.00070698936
0.00016584754
-0.00074304845
0.00013286794
-0.00076966449
9.8225221e-05
-0.0007865036
6.2283497e-05
-0.00079332725
2.5409269e-05
-0.00078999247
-1.2022975e-05
-0.0007764545
-4.9624621e-05
-0.00075277243
-8.6986574e-05
-0.00071911728
-0.00012367404
-0.0006757821
-0.00015922187
-0.00062319426
-0.0001931297
-0.00056193189
-0.00022484867
-0.00049275225
-0.00025373372
-0.00041665587
-0.00027889269
-0.00033504502
-0.00029878624
-0.00025009222
-0.00031035698
-0.0001654838
-0.00030755712
-8.7637079e-05
-0.00027974219
-2.71741e-05
-0.00021180531
-8.9446595e-05
-2.806799e-05
0.00011472916
-9.0616896e-05
0.00026733539
-0.00017092634
0.00035035643
-0.00025800853
0.00038395156
-0.00034545356
0.00038766836
-0.00042971539
0.0003746753
-0.00050875404
0.0003521338
-0.00058124544
0.00032347028
-0.00064620891
0.00029028754
-0.0007028559
0.00025344251
-0.00075053352
0.00021352513
-0.00078870235
0.00017103672
-0.00081692573
0.00012644853
-0.00083486323
8.0220933e-05
-0.00084226702
3.2813008e-05
-0.00083898099
-1.5309029e-05
-0.00082494317
-6.3662441e-05
-0.00080019223
-0.0001117375
-0.00076487728
-0.00015898896
-0.00071927099
-0.00020482813
-0.00066378567
-0.00024861499
-0.00059899412
-0.00028964023
-0.00052566283
-0.00032706504
-0.00044482262
-0.00035973288
-0.00035793938
-0.00038566943
-0.00026731108
-0.00040098528
-0.00017687497
-0.00039799327
-9.3547463e-05
-0.00036306966
-2.8862407e-05
-0.00027649045
-0.00011830895
-2.9730049e-05
0.00014445921
-9.6297215e-05
0.00033390253
-0.00018182206
0.00043588127
-0.00027448922
0.00047661871
-0.00036742941
0.00048060855
-0.00045687001
0.00046411588
-0.00054066355
0.00043592735
-0.00061743456
0.0004002413
-0.00068617782
0.00035903078
-0.0007460947
0.00031335936
-0.00079653042
0.00026396079
-0.00083694738
0.00021145362
-0.00086691056
0.00015641164
-0.00088607748
9.9387805e-05
-0.00089419189
4.092739e-05
-0.00089108123
-1.8419688e-05
-0.00087665873
-7.8084929e-05
-0.00085093079
-0.00013746541
-0.0008140092
-0.0001959105
-0.00076612827
-0.00025270903
-0.00070766641
-0.00030707685
-0.00063917377
-0.00035813292
-0.00056141369
-0.00040482516
-0.00047544458
-0.00044570201
-0.00038280948
-0.00047830455
-0.00028596937
-0.00049782547
-0.00018917821
-0.00049478447
-9.9931909e-05
-0.00045231603
-3.0721947e-05
-0.00034570042
-0.00014903091
-3.1752193e-05
0.0001762114
-0.00010302107
0.00040517139
-0.00019460731
0.0005274675
-0.00029376954
0.00057578092
-0.00039310552
0.00057994453
-0.00048856795
0.00055957831
-0.00057787579
0.00052523518
-0.00065959157
0.00048195708
-0.00073268537
0.00043212459
-0.00079635462
0.00037702859
-0.00084995187
0.00031755799
-0.0008929513
0.00025445301
-0.00092492822
0.00018838852
-0.00094554409
0.00012000365
-0.00095453626
4.991954e-05
-0.000951713
-2.1242941e-05
-0.00093695479
-9.2843137e-05
-0.00091022276
-0.00016419744
-0.0008715739
-0.00023455936
-0.00082118353
-0.00030309941
-0.00075937447
-0.00036888595
-0.00068665437
-0.00043085308
-0.00060376962
-0.00048770995
-0.00051180383
-0.00053766783
-0.00041239321
-0.00057771525
-0.00030820448
-0.0006020143
-0.00020388578
-0.0005991032
-0.0001076267
-0.00054857521
-3.3021066e-05
-0.00042030599
-0.00018205205
-3.4248138e-05
0.00021045953
-0.00011118174
0.00048210498
-0.00021000875
0.00062629448
-0.00031689807
0.00068267021
-0.00042381754
0.00068686401
-0.00052639202
0.0006621528
-0.00062218135
0.00062102452
-0.00070967813
0.00056945387
-0.00078783095
0.00051027743
-0.00085584341
0.00044504105
-0.00091308915
0.00037480371
-0.00095906862
0.00030043246
-0.00099338034
0.00022270022
-0.001015699
0.00014232234
-0.00102576
5.998051e-05
-0.0010233507
-2.3652315e-05
-0.00100831
-0.0001078838
-0.00098053843
-0.00019196903
-0.00094001629
-0.00027508151
-0.00088683313
-0.00035628257
-0.00082122682
-0.00043449229
-0.00074363428
-0.00050844564
-0.00065476288
-0.00057658135
-0.00055571224
-0.00063671848
-0.00044822406
-0.00068520347
-0.00033521561
-0.00071502279
-0.00022181957
-0.00071249922
-0.00011706881
-0.00065332598
-3.5882968e-05
-0.00050149177
-0.00021793501
-3.7286616e-05
0.00024774614
-0.00012103157
0.00056584991
-0.00022850446
0.00073376737
-0.00034456867
0.00079873442
-0.00046044155
0.0008027369
-0.0005713599
0.0007730712
-0.00067470012
0.00072436477
-0.00076888181
0.00066363558
-0.00085284213
0.00059423777
-0.00092580871
0.00051800763
-0.0009871978
0.0004361928
-0.001036558
0.00034979265
-0.0010735304
0.0002596726
-0.0010978175
0.00016660943
-0.0011091604
7.1323381e-05
-0.0011073251
-2.548754e-05
-0.0010921
-0.00012310894
-0.0010633056
-0.00022076346
-0.0010208174
-0.00031756963
-0.00096460332
-0.00041249661
-0.00089477498
-0.00050432058
-0.00081165659
-0.00059156398
-0.00071588012
-0.00067235777
-0.0006085395
-0.00074405908
-0.00049148679
-0.0008022562
-0.00036793672
-0.00083857284
-0.00024361469
-0.00083682124
-0.00012858777
-0.00076835282
-3.9396648e-05
-0.00059068293
-0.00025733156
-4.093972e-05
0.00028868584
-0.00013281921
0.0006577294
-0.00025055628
0.00085150448
-0.00037744221
0.00092562035
-0.00050379719
0.0009290919
-0.0006244012
0.00089367524
-0.00073642434
0.00083638793
-0.00083821732
0.00076542856
-0.00092872602
0.00068474646
-0.0010072311
0.00059651272
-0.0010732242
0.00050218593
-0.0011263343
0.00040290274
-0.0011662732
0.00029961157
-0.001192793
0.00019312917
-0.0012056529
8.4183353e-05
-0.0012046
-2.6540435e-05
-0.0011893613
-0.00013834756
-0.0011596549
-0.00025046988
-0.0011152153
-0.00036200911
-0.0010558405
-0.00047187138
-0.00098145824
-0.00057870276
-0.00089221819
-0.00068080398
-0.00078861916
-0.00077595679
-0.00067170806
-0.00086097021
-0.00054343967
-0.00093052464
-0.00040737463
-0.00097463787
-0.00026996253
-0.00097423338
-0.00014254713
-0.00089576817
-4.3665084e-05
-0.00068956506
-0.00030099666
-4.5302603e-05
0.00033398844
-0.00014685364
0.00075928043
-0.00027672228
0.00098137318
-0.0004163015
0.0010651996
-0.00055483689
0.0010676273
-0.00068657297
0.0010254113
-0.00080845393
0.00095826889
-0.00091877645
0.00087575107
-0.0010165296
0.00078249963
-0.0011010919
0.000681075
-0.0011720782
0.00057317226
-0.0012292438
0.00046006835
-0.0012724113
0.00034277917
-0.001301413
0.00022213086
-0.0013160459
9.8816349e-05
-0.0013160435
-2.6542833e-05
-0.0013010617
-0.00015332936
-0.0012706885
-0.00028084295
-0.0012244727
-0.00040822488
-0.0011619787
-0.00053436543
-0.0010828713
-0.00065781013
-0.00098703627
-0.00077663903
-0.0008747503
-0.00088824279
-0.00074694174
-0.00098877882
-0.00060563902
-0.0010718274
-0.00045479525
-0.0011254817
-0.00030174469
-0.001127284
-0.00015941827
-0.0010380946
-4.8826833e-05
-0.00080015645
-0.00034982357
-5.0505592e-05
0.00038449406
-0.00016354553
0.00087232036
-0.0003077296
0.0011255573
-0.00046214854
0.0012196186
-0.0006147575
0.0012202362
-0.00075917683
0.0011698306
-0.0008921125
0.0010912045
-0.0010118385
0.0009954771
-0.0011174426
0.00088810366
-0.0012084669
0.00077209942
-0.0012847181
0.00064942347
-0.0013461413
0.00052149162
-0.001392725
0.0003893629
-0.0014244243
0.00025383015
-0.0014411022
0.00011549429
-0.0014424897
-2.5155324e-05
-0.0014281628
-0.00016765628
-0.0013975494
-0.00031145629
-0.001349957
-0.00045581725
-0.0012846355
-0.00059968694
-0.0012008804
-0.00074156524
-0.001098187
-0.00087933245
-0.00097647603
-0.0010099538
-0.00083643895
-0.0011288159
-0.00068011162
-0.0012281547
-0.00051187563
-0.0012937176
-0.00034014525
-0.0012990143
-0.00017984125
-0.0011983986
-5.507255e-05
-0.000924925
-0.00040489604
-5.6728554e-05
0.00044122267
-0.00018345275
0.00099904457
-0.00034455053
0.0012866551
-0.00051630036
0.0013913684
-0.00068510269
0.0013890386
-0.00084385655
0.0013285844
-0.00098903202
0.00123638
-0.001118938
0.0011253831
-0.0012328459
0.0010020116
-0.0013305578
0.00086981126
-0.0014121659
0.00073103162
-0.0014778918
0.00058721759
-0.0015279629
0.000439434
-0.0015625146
0.00028838191
-0.0015815155
0.00013449516
-0.0015847134
-2.1957444e-05
-0.0015715988
-0.00018077076
-0.0015414084
-0.00034164665
-0.0014931446
-0.00050408104
-0.0014256423
-0.00066718928
-0.001337688
-0.00082951954
-0.0012282113
-0.0009888092
-0.0010965789
-0.0011415862
-0.00094305516
-0.0012823396
-0.00076955324
-0.0014016566
-0.00058089005
-0.0014823808
-0.00038679324
-0.001493111
-0.00020470422
-0.0013804876
-6.2666786e-05
-0.0010669624
-0.00046756274
-6.4223013e-05
0.00050544573
-0.0002073458
0.0011421674
-0.0003885068
0.0014678161
-0.00058051442
0.001583376
-0.0007678899
0.0015764141
-0.00094271107
0.0015034056
-0.0011012426
0.0013949115
-0.0012419266
0.0012660672
-0.001364347
0.001124432
-0.0014687005
0.00097416481
-0.001555494
0.00081782513
-0.0016253388
0.00065706233
-0.0016787958
0.00049289107
-0.0017162557
0.00032584178
-0.0017378456
0.00015608512
-0.0017433618
-1.6441115e-05
-0.0017322101
-0.00019192239
-0.0017034081
-0.00037044864
-0.0016555846
-0.00055190455
-0.0015870407
-0.0007357332
-0.0014958773
-0.00092068298
-0.0013802205
-0.001104466
-0.0012385961
-0.0012832106
-0.0010705405
-0.0014503951
-0.00087760469
-0.0015945924
-0.00066498171
-0.0016950038
-0.00044397887
-0.0017141139
-0.00023526738
-0.001589199
-7.198331e-05
-0.0012302465
-0.0005395461
-7.3348225e-05
0.00057879396
-0.00023630955
0.0013051288
-0.00044142531
0.0016729318
-0.00065716822
0.0017991189
-0.00086578418
0.0017850301
-0.0010584416
0.0016960631
-0.0012312815
0.0015677514
-0.0013830419
0.0014178276
-0.001513809
0.0012551991
-0.0016243628
0.0010847187
-0.0017157949
0.0009092572
-0.0017892515
0.00073051899
-0.0018457464
0.00054938603
-0.0018860179
0.00036611335
-0.0019104205
0.00018048783
-0.0019188548
-8.0067501e-06
-0.0019106393
-0.00020013789
-0.0018845654
-0.00039652256
-0.001838822
-0.00059764799
-0.0017710457
-0.00080350953
-0.001678438
-0.0010132906
-0.0015580105
-0.0012248935
-0.0014070394
-0.0014341816
-0.001223867
-0.0016335675
-0.0010092581
-0.0018092012
-0.00076858385
-0.0019356779
-0.00051500298
-0.0019676947
-0.00027336971
-0.0018308322
-8.3565697e-05
-0.0014200504
-0.00062311178
-8.4632076e-05
0.00066342603
-0.00027190679
0.0014924035
-0.00050587709
0.0019069022
-0.00074952228
0.0020427641
-0.0009823405
0.0020178483
-0.0011945458
0.0019082685
-0.0013823282
0.0017555338
-0.0015449825
0.0015804819
-0.0016833748
0.0013935914
-0.0017991249
0.0012004688
-0.0018941289
0.0010042612
-0.0019702483
0.00080663853
-0.0020290927
0.00060823043
-0.0020718595
0.00040888022
-0.0020992052
0.00020783351
-0.0021112462
4.0343716e-06
-0.0021071785
-0.00020420558
-0.0020856207
-0.00041808039
-0.0020442632
-0.00063900557
-0.0019799521
-0.00086782058
-0.0018887509
-0.0011044916
-0.0017661669
-0.0013474774
-0.0016076645
-0.0015926839
-0.0014096811
-0.0018315509
-0.001171465
-0.0020474173
-0.00089809057
-0.0022090523
-0.00060476311
-0.002261022
-0.0003217907
-0.0021138046
-9.8236481e-05
-0.0016436046
-0.00072134817
-9.8877738e-05
0.00076230377
-0.00031644719
0.0017099729
-0.00058554843
0.0021760035
-0.00086210587
0.0023193215
-0.0011223378
0.0022780803
-0.0013555662
0.0021414968
-0.0015583593
0.001958327
-0.0017309794
0.001753102
-0.0018754689
0.001538081
-0.0019946291
0.0013196291
-0.0020914365
0.0011010686
-0.0021686813
0.00088388346
-0.0022287331
0.00066828223
-0.0022733791
0.00045352628
-0.0023037111
0.00023816552
-0.0023199411
2.0264356e-05
-0.0023215438
-0.0002026028
-0.0023068049
-0.00043281933
-0.0022729456
-0.00067286483
-0.0022159387
-0.00092482745
-0.002130479
-0.0011899514
-0.0020101186
-0.0014678378
-0.0018477685
-0.0017550341
-0.0016369104
-0.002042409
-0.0013740465
-0.0023102813
-0.0010629446
-0.0025201542
-0.00072076856
-0.0026031981
-0.00038491502
-0.0024496581
-0.00011731102
-0.0019112086
-0.00083865922
-0.00011735804
0.00087966183
-0.00037343814
0.0019660528
-0.00068581836
0.0024883837
-0.0010012725
0.0026347756
-0.0012922194
0.0025690272
-0.0015473797
0.0023966572
-0.0017642923
0.0021752395
-0.0019448167
0.0019336265
-0.0020927268
0.0016859911
-0.0022124467
0.001439349
-0.0023083624
0.0011969843
-0.0023844304
0.0009599515
-0.0024439497
0.00072780162
-0.0024894234
0.00049900007
-0.0025224605
0.00027120258
-0.0025436557
4.14595e-05
-0.002552576
-0.00019368253
-0.0025474633
-0.00043793204
-0.0025251237
-0.00069520442
-0.002480658
-0.00096929309
-0.0024072346
-0.0012633748
-0.002296001
-0.0015790714
-0.0021364095
-0.0019146256
-0.0019174967
-0.0022613217
-0.0016310106
-0.0025967672
-0.0012774016
-0.002873763
-0.00087493812
-0.0030056615
-0.00047000766
-0.0028545885
-0.00014305099
-0.0022381652
-0.00098171023
-0.00014218049
0.0010218423
-0.00044834281
0.002272215
-0.00081463426
0.0028546752
-0.0011759491
0.0029960905
-0.0015005952
0.0028936733
-0.0017774334
0.0026734954
-0.0020059865
0.0024037926
-0.0021906548
0.0021182947
-0.0023376945
0.0018330308
-0.0024536978
0.0015553524
-0.0025448298
0.0012881163
-0.0026164517
0.0010315734
-0.0026729474
0.00078429733
-0.0027176494
0.00054370207
-0.0027527955
0.00030634871
-0.0027794641
6.8128198e-05
-0.0027974993
-0.00017564729
-0.0028052738
-0.00043015748
-0.0027994033
-0.00070107494
-0.0027743041
-0.00099439231
-0.0027216633
-0.0013160157
-0.002629927
-0.0016708077
-0.0024841431
-0.0020604096
-0.0022669507
-0.0024785141
-0.0019622092
-0.0029015087
-0.0015632441
-0.0032727281
-0.0010867522
-0.0034821534
-0.000589707
-0.0033516337
-0.00017966871
-0.0026482035
-0.0011613789
-0.00017697703
0.0011988194
-0.00054981746
0.0026450553
-0.00098372808
0.0032885858
-0.001398453
0.0034108154
-0.0017585369
0.0032537572
-0.0020545496
0.002969508
-0.0022896601
0.0026389031
-0.0024721669
0.0023008015
-0.0026117809
0.0019726449
-0.0027178917
0.0016614632
-0.0027988122
0.0013690369
-0.0028615042
0.0010942654
-0.0029115348
0.00083432791
-0.0029531282
0.00058529541
-0.0029892268
0.00034244732
-0.0030215033
0.00010040473
-0.0030502982
-0.00014685247
-0.0030744072
-0.00040604849
-0.0030906657
-0.00068481649
-0.0030932885
-0.00099176966
-0.0030729278
-0.0013363763
-0.0030154816
-0.0017282538
-0.0029009588
-0.0021749323
-0.0027034188
-0.0026760541
-0.0023943256
-0.0032106019
-0.0019531042
-0.0037139496
-0.0013882482
-0.0040470093
-0.00076670703
-0.0039731749
-0.0002355428
-0.0031793676
-0.0013969217
-0.00022816837
0.0014269878
-0.00069154169
0.0031084286
-0.0012098876
0.0038069318
-0.0016846826
0.0038856104
-0.0020786534
0.003647728
-0.0023870682
0.0032779229
-0.0026193309
0.0028711658
-0.0027894937
0.0024709643
-0.0029118905
0.0020950417
-0.0029993496
0.0017489223
-0.0030626174
0.0014323047
-0.0031103295
0.0011419775
-0.0031492092
0.00087320767
-0.0031843275
0.00062041367
-0.0032193294
0.00037744928
-0.0032565664
0.00013764179
-0.0032971006
-0.0001063183
-0.0033405501
-0.00036259893
-0.0033845949
-0.00064077165
-0.0034241315
-0.00095223308
-0.0034498756
-0.0013106322
-0.0034462541
-0.0017318753
-0.0033886555
-0.0022325308
-0.0032410145
-0.0028236951
-0.0029569339
-0.0034946825
-0.002491045
-0.0041798384
-0.0018293982
-0.0047086561
-0.0010411478
-0.0047614253
-0.00032769873
-0.0038928167
-0.0017246205
-0.00030710411
0.0017340919
-0.00089425696
0.0036955815
-0.0015148184
0.0044274932
-0.0020512729
0.0044220649
-0.0024698433
0.0040662983
-0.0027757324
0.0035838119
-0.0029883526
0.003083786
-0.0031298421
0.0026124539
-0.0032203841
0.0021855837
-0.0032767279
0.0018052661
-0.0033120926
0.0014676694
-0.0033366038
0.0011664886
-0.0033578807
0.00089448451
-0.0033816005
0.00064413348
-0.0034119572
0.00040780601
-0.0034519628
0.00017764734
-0.0035035534
-5.4727685e-05
-0.0035676253
-0.00029852714
-0.0036434546
-0.00056494232
-0.0037278984
-0.00086778934
-0.0038136477
-0.0012248829
-0.0038861868
-0.0016593362
-0.0039189224
-0.0021997953
-0.0038667402
-0.0028758774
-0.0036612808
-0.003700142
-0.0032180805
-0.0046230387
-0.0024746816
-0.005452055
-0.0014770693
-0.0057590377
-0.00048905542
-0.0048808307
-0.0022136759
-0.00043317168
0.0021672636
-0.0011858619
0.0044482717
-0.0019188081
0.0051604394
-0.0025029028
0.0050061596
-0.0029195334
0.0044829289
-0.0031922219
0.0038565003
-0.0033553633
0.0032469274
-0.0034416822
0.0026987728
-0.0034780953
0.0022219968
-0.0034852219
0.0018123927
-0.0034782432
0.0014606908
-0.0034681009
0.0011563464
-0.0034626431
0.00088902671
-0.0034675821
0.00064907255
-0.0034872314
0.00042745536
-0.0035250321
0.00021544796
-0.0035836318
3.8720981e-06
-0.0036656804
-0.00021647858
-0.0037725737
-0.00045804896
-0.0039045176
-0.00073584537
-0.0040586431
-0.0010707574
-0.0042255307
-0.0014924487
-0.0043824749
-0.002042851
-0.0044820032
-0.0027763491
-0.0044368765
-0.0037452687
-0.0041129941
-0.0049469211
-0.003363024
-0.0062020251
-0.0021514084
-0.0069706534
-0.00077519015
-0.0062570489
-0.0029888661
-0.00063677988
0.0028040435
-0.0015926647
0.0054041566
-0.0024156604
0.005983435
-0.0029935938
0.005584093
-0.00334525
0.0048345851
-0.0035242427
0.004035493
-0.0035852767
0.0033079613
-0.0035732646
0.0026867607
-0.0035214121
0.0021701443
-0.0034528336
0.0017438142
-0.0033830367
0.0013908939
-0.0033222212
0.0010955308
-0.0032771237
0.00084392922
-0.0032523974
0.00062434619
-0.0032516014
0.00042665939
-0.0032779123
0.00024175886
-0.0033344881
6.0447866e-05
-0.0034250051
-0.00012596158
-0.0035534553
-0.0003295989
-0.0037240448
-0.00056525589
-0.0039402739
-0.00085452828
-0.0042020753
-0.0012306473
-0.0044989085
-0.0017460179
-0.0047949522
-0.0024803053
-0.0050025556
-0.0035376653
-0.0049496318
-0.0049998449
-0.0043799979
-0.0067716591
-0.003082733
-0.0082679183
-0.0012558239
-0.008083958
-0.00424469
-0.00095610727
0.0037601508
-0.0021031052
0.0065511546
-0.0029010912
0.0067814209
-0.0033306188
0.0060136206
-0.0034842215
0.0049881878
-0.0034578807
0.0040091522
-0.0033288243
0.0031789049
-0.0031519363
0.0025098726
-0.0029626811
0.001980889
-0.0027823933
0.0015635264
-0.0026231523
0.0012316529
-0.0024913953
0.00096377384
-0.0023904171
0.00074295097
-0.0023220346
0.00055596373
-0.0022876755
0.0003923003
-0.0022890588
0.00024314222
-0.0023289118
0.00010030082
-0.0024106688
-4.42045e-05
-0.0025404123
-0.0001998554
-0.0027254448
-0.00038022344
-0.0029755203
-0.00060445286
-0.0033016899
-0.00090447765
-0.0037121929
-0.001335515
-0.0042000714
-0.0019924268
-0.0047128154
-0.0030249214
-0.0050949605
-0.0046176998
-0.0050218244
-0.0068447951
-0.0040344645
-0.0092552782
-0.0019471427
-0.01017128
-0.0061918327
-0.0014063562
0.005166507
-0.0025529586
0.0076977571
-0.0029989195
0.0072273818
-0.002973898
0.0059885991
-0.0026878047
0.0047020944
-0.0022788745
0.0036002219
-0.0018357847
0.002735815
-0.0014105677
0.0020846557
-0.0010289814
0.0015993026
-0.00070098985
0.0012355348
-0.00042827016
0.00095893318
-0.00020867213
0.00074417582
-3.8769602e-05
0.00057304844
8.470851e-05
0.00043248556
0.00016413527
0.00031287348
0.00020053017
0.00020674727
0.00019310842
0.00010772256
0.00013985775
9.0461653e-06
3.4585402e-05
-9.4583074e-05
-0.00013099442
-0.00021464367
-0.00037033678
-0.0003651105
-0.00070309508
-0.00057171929
-0.0011564213
-0.00088218876
-0.0017622899
-0.0013865582
-0.0025398264
-0.002247385
-0.0034383683
-0.0037191579
-0.0042096174
-0.0060735462
-0.0042271998
-0.0092376959
-0.0026341312
-0.011764348
-0.008825964
-0.0018460282
0.0070125352
-0.0022784948
0.0081302237
-0.0016723234
0.0066212103
-0.00068219226
0.0049984679
0.0003682282
0.003651674
0.0013492922
0.002619158
0.002205972
0.0018791351
0.0029240476
0.0013665801
0.0035117971
0.0010115531
0.0039859119
0.00076141999
0.0043640192
0.00058082598
0.0046617886
0.00044640642
0.0048919897
0.00034284737
0.0050643625
0.00026011287
0.0051858297
0.0001914063
0.0052607807
0.00013179628
0.0052912076
7.7295633e-05
0.0052760607
2.4193015e-05
0.0052127778
-3.1300187e-05
0.0050930726
-9.4938551e-05
0.0049034081
-0.00017544593
0.0046206189
-0.00028893019
0.0042052505
-0.00046682036
0.0035913744
-0.00077268211
0.0026769927
-0.0013330033
0.0013404979
-0.002382663
-0.00043777128
-0.0042952772
-0.0022253349
-0.0074501322
-0.0026356983
-0.011353985
-0.011461662
-0.00094157736
0.0079541126
0.00090986789
0.0062787784
0.0036068832
0.003924195
0.0059800879
0.0026252632
0.007893419
0.0017383428
0.0093863254
0.0011262516
0.010528088
0.00073737296
0.011395464
0.0004992035
0.012056108
0.0003509093
0.012562295
0.00025523281
0.012952233
0.00019088832
0.013253233
0.00014540593
0.013484582
0.00011149826
0.013659754
8.4940904e-05
0.013787989
6.3171627e-05
0.013875317
4.4468199e-05
0.013925106
2.7507101e-05
0.013938085
1.1213971e-05
0.0139131
-6.3155228e-06
0.013844479
-2.631758e-05
0.01372099
-5.1957265e-05
0.013521508
-8.9448569e-05
0.013205387
-0.0001506992
0.012693933
-0.00026122827
0.011837024
-0.00047609382
0.010366651
-0.00091228961
0.0078858348
-0.0018144614
0.0041608813
-0.0037251787
0.00038306173
-0.0075761657
-0.011078601
0.0079541126
0.014232891
0.018157086
0.020782349
0.022520692
0.023646943
0.024384316
0.02488352
0.025234429
0.025489662
0.02568055
0.025825956
0.025937454
0.026022395
0.026085567
0.026130035
0.026157542
0.026168756
0.026162441
0.026136123
0.026084166
0.025994717
0.025844018
0.02558279
0.025106696
0.024194406
0.022379945
0.018654766
0.0110786
)
;

boundaryField
{
    movingWall
    {
        type            calculated;
        value           uniform 0;
    }
    fixedWalls
    {
        type            calculated;
        value           uniform 0;
    }
    frontAndBack
    {
        type            empty;
        value           nonuniform List<scalar> 0();
    }
}


// ************************************************************************* //
