/*--------------------------------*- C++ -*----------------------------------*\
| =========                 |                                                 |
| \\      /  F ield         | OpenFOAM: The Open Source CFD Toolbox           |
|  \\    /   O peration     | Version:  2312                                  |
|   \\  /    A nd           | Website:  www.openfoam.com                      |
|    \\/     M anipulation  |                                                 |
\*---------------------------------------------------------------------------*/
FoamFile
{
    version     2.0;
    format      ascii;
    arch        "LSB;label=32;scalar=64";
    class       volVectorField;
    location    "0.3";
    object      U;
}
// * * * * * * * * * * * * * * * * * * * * * * * * * * * * * * * * * * * * * //

dimensions      [0 1 -1 0 0 0 0];

internalField   nonuniform List<vector> 
900
(
(1.2394649e-05 -1.1919711e-05 0)
(-0.00019491403 0.00011839112 0)
(-0.00073045429 0.00020752455 0)
(-0.001396497 0.00024145963 0)
(-0.0020997011 0.0002453133 0)
(-0.0027922863 0.00023594076 0)
(-0.0034500783 0.00022090603 0)
(-0.0040605933 0.00020292634 0)
(-0.0046158103 0.00018274137 0)
(-0.0051091453 0.00016052179 0)
(-0.0055346829 0.00013637985 0)
(-0.0058871253 0.00011048274 0)
(-0.0061618678 8.3051541e-05 0)
(-0.0063550722 5.4344458e-05 0)
(-0.0064637254 2.4647455e-05 0)
(-0.0064856889 -5.7279327e-06 0)
(-0.0064197509 -3.6446357e-05 0)
(-0.0062657064 -6.714573e-05 0)
(-0.0060243924 -9.743937e-05 0)
(-0.0056977634 -0.00012692203 0)
(-0.0052889336 -0.00015518432 0)
(-0.0048021952 -0.00018183414 0)
(-0.0042430275 -0.00020649997 0)
(-0.0036182383 -0.00022870919 0)
(-0.0029368684 -0.00024734988 0)
(-0.0022134386 -0.00025922837 0)
(-0.0014753905 -0.00025621417 0)
(-0.00077493701 -0.0002208866 0)
(-0.0002109544 -0.00012769624 0)
(1.0385714e-05 9.162671e-06 0)
(-0.00011709168 0.00019375344 0)
(-0.00076318396 0.00076152203 0)
(-0.0019992849 0.0011235286 0)
(-0.0034755016 0.0012742371 0)
(-0.0050203572 0.0012976956 0)
(-0.0065459666 0.0012557587 0)
(-0.0080006179 0.0011804606 0)
(-0.009353343 0.0010856165 0)
(-0.010583439 0.00097653925 0)
(-0.011674735 0.00085546483 0)
(-0.012613556 0.00072382708 0)
(-0.013388177 0.00058297538 0)
(-0.013988724 0.0004343343 0)
(-0.014407183 0.00027941804 0)
(-0.01463745 0.00011982622 0)
(-0.014675388 -4.2750676e-05 0)
(-0.014518915 -0.00020652244 0)
(-0.014168152 -0.00036958988 0)
(-0.013625473 -0.00052994366 0)
(-0.012895654 -0.00068547115 0)
(-0.011986008 -0.00083397689 0)
(-0.010906531 -0.00097318639 0)
(-0.0096701582 -0.0011005915 0)
(-0.0082934647 -0.0012126967 0)
(-0.0067989432 -0.0013026443 0)
(-0.00522108 -0.0013546875 0)
(-0.003617079 -0.0013345762 0)
(-0.0020821067 -0.0011784271 0)
(-0.00079662035 -0.0008010484 0)
(-0.00012315584 -0.00020847499 0)
(-0.00020993304 0.00073140243 0)
(-0.0011506906 0.0020036087 0)
(-0.0028252231 0.0027675128 0)
(-0.0047806338 0.0030942377 0)
(-0.0068082836 0.0031475633 0)
(-0.0088057351 0.0030504352 0)
(-0.01070952 0.0028708978 0)
(-0.012479461 0.0026407402 0)
(-0.014087961 0.002373748 0)
(-0.015513479 0.0020765408 0)
(-0.016738039 0.0017534364 0)
(-0.017746474 0.0014082004 0)
(-0.018526191 0.0010445616 0)
(-0.019067111 0.00066633999 0)
(-0.019361674 0.00027748561 0)
(-0.019404879 -0.00011788273 0)
(-0.019194371 -0.00051543684 0)
(-0.01873057 -0.00091062353 0)
(-0.018016783 -0.0012986438 0)
(-0.017059397 -0.0016744351 0)
(-0.01586807 -0.0020326648 0)
(-0.014455985 -0.0023676354 0)
(-0.012840256 -0.0026727735 0)
(-0.011042882 -0.0029388052 0)
(-0.0090935099 -0.0031487048 0)
(-0.0070363588 -0.0032666867 0)
(-0.0049411732 -0.003220203 0)
(-0.0029187435 -0.002882368 0)
(-0.0011881636 -0.0020875601 0)
(-0.00021661076 -0.00076535446 0)
(-0.00025402426 0.0014218522 0)
(-0.0013614763 0.003537603 0)
(-0.0033009136 0.0047539235 0)
(-0.0055406652 0.0052681406 0)
(-0.0078478692 0.0053454737 0)
(-0.010113607 0.0051780429 0)
(-0.012269837 0.0048728662 0)
(-0.014272626 0.0044810661 0)
(-0.016091337 0.0040258191 0)
(-0.017701901 0.0035188841 0)
(-0.019084267 0.0029681096 0)
(-0.020221621 0.0023802341 0)
(-0.021100098 0.0017617782 0)
(-0.021708671 0.001119303 0)
(-0.022039112 0.00045950893 0)
(-0.022086006 -0.00021068192 0)
(-0.021846818 -0.00088404454 0)
(-0.021321986 -0.0015529883 0)
(-0.020515126 -0.0022095007 0)
(-0.019433234 -0.0028450944 0)
(-0.018086952 -0.0034507549 0)
(-0.016490889 -0.0040167274 0)
(-0.014664108 -0.0045316276 0)
(-0.012631126 -0.0049795222 0)
(-0.010424791 -0.0053321373 0)
(-0.0080934811 -0.0055320751 0)
(-0.0057122053 -0.0054652662 0)
(-0.0033992967 -0.0049334856 0)
(-0.0013995228 -0.0036688465 0)
(-0.0002602204 -0.0014752453 0)
(-0.00027473576 0.0021908845 0)
(-0.001481381 0.0052361572 0)
(-0.0035936064 0.0069363345 0)
(-0.0060221881 0.0076417282 0)
(-0.0085146769 0.0077359681 0)
(-0.010956554 0.0074869789 0)
(-0.013276884 0.0070426521 0)
(-0.015429845 0.0064739178 0)
(-0.017383407 0.0058135619 0)
(-0.019112351 0.0050787225 0)
(-0.020595704 0.0042810419 0)
(-0.021815933 0.0034304776 0)
(-0.022758633 0.0025365453 0)
(-0.023412354 0.0016087059 0)
(-0.023768516 0.00065652917 0)
(-0.023821398 -0.00031016986 0)
(-0.02356817 -0.0012811915 0)
(-0.023008987 -0.002245813 0)
(-0.022147246 -0.0031926699 0)
(-0.020989836 -0.0041096571 0)
(-0.019547476 -0.0049838194 0)
(-0.017835121 -0.0058010175 0)
(-0.015872526 -0.0065446777 0)
(-0.013685314 -0.0071918086 0)
(-0.011307953 -0.0077024481 0)
(-0.0087913079 -0.0079968022 0)
(-0.0062143482 -0.007916982 0)
(-0.0037025999 -0.0071864101 0)
(-0.0015224641 -0.0054178646 0)
(-0.00028097241 -0.0022636889 0)
(-0.00028900246 0.0030103255 0)
(-0.0015728386 0.007055693 0)
(-0.0038267543 0.0092716177 0)
(-0.0064148136 0.010175281 0)
(-0.0090660223 0.010281914 0)
(-0.01165912 0.0099419684 0)
(-0.01411984 0.0093468836 0)
(-0.016400633 0.008588351 0)
(-0.018468498 0.0077091372 0)
(-0.020297595 0.0067319774 0)
(-0.021866541 0.0056724818 0)
(-0.023157549 0.0045439601 0)
(-0.024156036 0.003359002 0)
(-0.024850385 0.0021299898 0)
(-0.025231791 0.00086933712 0)
(-0.025294201 -0.00041030329 0)
(-0.025034329 -0.0016958164 0)
(-0.024451755 -0.0029733879 0)
(-0.023549223 -0.0042282928 0)
(-0.022332968 -0.0054447249 0)
(-0.020813145 -0.006605612 0)
(-0.019004374 -0.0076921527 0)
(-0.01692643 -0.0086822057 0)
(-0.014605462 -0.0095452203 0)
(-0.012077225 -0.010228786 0)
(-0.0093952023 -0.010629235 0)
(-0.0066432666 -0.010541564 0)
(-0.0039559713 -0.0096035767 0)
(-0.0016211841 -0.0072953979 0)
(-0.00029618836 -0.0031047582 0)
(-0.00030456512 0.0038759475 0)
(-0.0016686309 0.0089891955 0)
(-0.0040693553 0.01175487 0)
(-0.006824931 0.012866793 0)
(-0.0096446025 0.012982937 0)
(-0.012398851 0.012543034 0)
(-0.015009108 0.011785352 0)
(-0.017425676 0.010823796 0)
(-0.019614545 0.0097117683 0)
(-0.021549419 0.0084779457 0)
(-0.023208773 0.0071421117 0)
(-0.024574846 0.0057210336 0)
(-0.025633137 0.0042303897 0)
(-0.026372045 0.0026854129 0)
(-0.026782622 0.0011012232 0)
(-0.026858453 -0.00050686573 0)
(-0.026595628 -0.0021230065 0)
(-0.025992864 -0.0037304501 0)
(-0.025051836 -0.0053112067 0)
(-0.02377761 -0.0068457613 0)
(-0.022179217 -0.0083127796 0)
(-0.020270376 -0.0096884896 0)
(-0.018070412 -0.010944682 0)
(-0.01560574 -0.012042486 0)
(-0.012913515 -0.012915814 0)
(-0.010050559 -0.013434923 0)
(-0.0071071978 -0.013343534 0)
(-0.0042293426 -0.012186333 0)
(-0.0017286471 -0.0092994101 0)
(-0.00031354911 -0.0039967066 0)
(-0.00032437739 0.0047956872 0)
(-0.0017836035 0.011051032 0)
(-0.0043550277 0.01440434 0)
(-0.0073052626 0.015736612 0)
(-0.010320984 0.015859666 0)
(-0.013262777 0.015309732 0)
(-0.016046721 0.014375774 0)
(-0.018620459 0.013195813 0)
(-0.02094884 0.011834843 0)
(-0.023005228 0.010328006 0)
(-0.024768202 0.0086995453 0)
(-0.026220337 0.0069698067 0)
(-0.0273475 0.0051575322 0)
(-0.028138335 0.0032806568 0)
(-0.028583883 0.0013567613 0)
(-0.028677355 -0.00059648395 0)
(-0.028414065 -0.0025608197 0)
(-0.027791544 -0.0045168526 0)
(-0.026809937 -0.0064435366 0)
(-0.025472557 -0.008317718 0)
(-0.023786659 -0.010113677 0)
(-0.021764417 -0.011802303 0)
(-0.019424168 -0.013348647 0)
(-0.016792306 -0.014704439 0)
(-0.013907545 -0.015788169 0)
(-0.010830876 -0.016441068 0)
(-0.0076608031 -0.01635052 0)
(-0.004557244 -0.014959833 0)
(-0.0018598435 -0.011449572 0)
(-0.00033593804 -0.00494984 0)
(-0.00034946749 0.0057826053 0)
(-0.0019244463 0.013266934 0)
(-0.0047003874 0.017251564 0)
(-0.0078826251 0.018818022 0)
(-0.011131207 0.018944556 0)
(-0.014294962 0.018272179 0)
(-0.017283561 0.01714514 0)
(-0.020041526 0.015727965 0)
(-0.022532532 0.014098516 0)
(-0.024729831 0.012299119 0)
(-0.026612487 0.01035887 0)
(-0.028163848 0.0083018368 0)
(-0.029370578 0.0061497642 0)
(-0.030221912 0.0039230513 0)
(-0.030709091 0.0016413646 0)
(-0.030825 -0.00067573206 0)
(-0.030564023 -0.0030080628 0)
(-0.029922142 -0.0053340544 0)
(-0.028897402 -0.0076299688 0)
(-0.027490624 -0.0098691976 0)
(-0.025706423 -0.012021559 0)
(-0.023554535 -0.014052186 0)
(-0.021051516 -0.015918533 0)
(-0.01822322 -0.017561484 0)
(-0.015109898 -0.018881771 0)
(-0.011777503 -0.01968779 0)
(-0.0083346082 -0.01960435 0)
(-0.0049583037 -0.017963667 0)
(-0.0020221063 -0.013777629 0)
(-0.00036442987 -0.0059796912 0)
(-0.00038038577 0.0068520802 0)
(-0.0020953201 0.015668842 0)
(-0.0051162663 0.020335683 0)
(-0.008574779 0.022151623 0)
(-0.012099096 0.022276403 0)
(-0.015524105 0.02146567 0)
(-0.018751961 0.02012449 0)
(-0.021723717 0.018446858 0)
(-0.024402025 0.016525135 0)
(-0.026760475 0.01440977 0)
(-0.028779238 0.012135213 0)
(-0.030443107 0.0097294215 0)
(-0.031740177 0.0072170196 0)
(-0.032660798 0.0046205122 0)
(-0.033196756 0.0019611055 0)
(-0.033340733 -0.00074041643 0)
(-0.033086039 -0.0034626912 0)
(-0.032426677 -0.0061826716 0)
(-0.031357885 -0.0088745165 0)
(-0.029877014 -0.011508532 0)
(-0.027984857 -0.014050105 0)
(-0.02568743 -0.016458182 0)
(-0.022998279 -0.018681582 0)
(-0.019941773 -0.020648481 0)
(-0.016559362 -0.022238817 0)
(-0.01292264 -0.023223243 0)
(-0.0091523781 -0.023156186 0)
(-0.0054467786 -0.021246936 0)
(-0.0022208355 -0.016322856 0)
(-0.00039973633 -0.0071045445 0)
(-0.00041778078 0.0080213966 0)
(-0.0023004489 0.018293676 0)
(-0.0056132328 0.023701936 0)
(-0.0093987875 0.025783777 0)
(-0.013247197 0.025898707 0)
(-0.016976798 0.024928914 0)
(-0.020481068 0.02334703 0)
(-0.023697392 0.021380188 0)
(-0.026587821 0.019137315 0)
(-0.029127073 0.016678168 0)
(-0.031297379 0.014043169 0)
(-0.033085981 0.011264328 0)
(-0.034483336 0.0083689362 0)
(-0.03548167 0.0053810749 0)
(-0.036073843 0.0023227136 0)
(-0.036252562 -0.00078509492 0)
(-0.03600995 -0.0039208456 0)
(-0.035337538 -0.0070610541 0)
(-0.034226865 -0.010178692 0)
(-0.032670539 -0.013241637 0)
(-0.030663918 -0.016211088 0)
(-0.028207457 -0.019039433 0)
(-0.025309834 -0.021665657 0)
(-0.021992346 -0.024002907 0)
(-0.018296771 -0.025906389 0)
(-0.014300818 -0.027102676 0)
(-0.010139903 -0.02706589 0)
(-0.0060382928 -0.024867703 0)
(-0.0024621223 -0.019131578 0)
(-0.00044275918 -0.0083453535 0)
(-0.00046259563 0.0093102516 0)
(-0.0025452532 0.021183993 0)
(-0.0062042381 0.027402254 0)
(-0.010375083 0.029766994 0)
(-0.01460199 0.029859739 0)
(-0.018683651 0.028703741 0)
(-0.022503648 0.026847494 0)
(-0.025995742 0.024555847 0)
(-0.029122212 0.021956885 0)
(-0.031860143 0.019121153 0)
(-0.034195267 0.016095767 0)
(-0.036118713 0.012916921 0)
(-0.037624612 0.0096142165 0)
(-0.038708149 0.0062125503 0)
(-0.039364025 0.0027335746 0)
(-0.039585357 -0.0008027036 0)
(-0.039363031 -0.0043760919 0)
(-0.038685552 -0.0079641497 0)
(-0.03753968 -0.011540038 0)
(-0.035911641 -0.015070306 0)
(-0.033789196 -0.01851256 0)
(-0.03116466 -0.021812459 0)
(-0.028039074 -0.024897871 0)
(-0.024428116 -0.027664069 0)
(-0.02037219 -0.029936465 0)
(-0.015955167 -0.031389281 0)
(-0.011329885 -0.031403528 0)
(-0.0067529494 -0.02889476 0)
(-0.0027540199 -0.022258728 0)
(-0.00049478752 -0.0097265766 0)
(-0.00051617727 0.010741644 0)
(-0.0028370704 0.024389584 0)
(-0.0069063498 0.031496859 0)
(-0.011530086 0.034161145 0)
(-0.016197098 0.034213184 0)
(-0.020682776 0.032835139 0)
(-0.024859621 0.030661653 0)
(-0.028658213 0.028001031 0)
(-0.032042473 0.025003763 0)
(-0.03499376 0.021752978 0)
(-0.037503372 0.018303293 0)
(-0.039568342 0.014695137 0)
(-0.041188282 0.010959848 0)
(-0.04236282 0.0071220625 0)
(-0.043089574 0.0032016462 0)
(-0.043362679 -0.00078421409 0)
(-0.043171834 -0.0048186217 0)
(-0.042501948 -0.0088822406 0)
(-0.041333736 -0.012950431 0)
(-0.039645003 -0.016990157 0)
(-0.037413076 -0.020956624 0)
(-0.034618584 -0.024789009 0)
(-0.03125091 -0.028402851 0)
(-0.027316129 -0.031672183 0)
(-0.022850216 -0.034386149 0)
(-0.017942423 -0.036155733 0)
(-0.012766017 -0.036252049 0)
(-0.0076179454 -0.033410841 0)
(-0.0031075578 -0.025770658 0)
(-0.00055762785 -0.011277476 0)
(-0.00058042211 0.012343117 0)
(-0.0031859814 0.02796989 0)
(-0.0077426152 0.036056727 0)
(-0.012898872 0.039035272 0)
(-0.01807635 0.039019035 0)
(-0.023022859 0.037371241 0)
(-0.027598839 0.034825567 0)
(-0.031732806 0.031740974 0)
(-0.035392626 0.028294385 0)
(-0.038566749 0.024583644 0)
(-0.041254957 0.020671709 0)
(-0.043462939 0.016603112 0)
(-0.045198203 0.012410037 0)
(-0.046466794 0.0081153776 0)
(-0.047270714 0.0037352516 0)
(-0.047606016 -0.00071830723 0)
(-0.047461444 -0.0052343458 0)
(-0.04681779 -0.0097994144 0)
(-0.045648326 -0.014393927 0)
(-0.043919998 -0.018987932 0)
(-0.041596101 -0.023536358 0)
(-0.038640801 -0.027972935 0)
(-0.035026088 -0.032200047 0)
(-0.030742337 -0.036066723 0)
(-0.025815858 -0.039317657 0)
(-0.020338912 -0.041486183 0)
(-0.014508106 -0.041711126 0)
(-0.0086709538 -0.038517437 0)
(-0.0035380827 -0.029749353 0)
(-0.00063377784 -0.013033958 0)
(-0.0006580207 0.014148514 0)
(-0.0036060492 0.031997478 0)
(-0.0087446878 0.041167029 0)
(-0.014528763 0.044469989 0)
(-0.020297694 0.044344609 0)
(-0.025766847 0.042363054 0)
(-0.030784172 0.039374297 0)
(-0.035278368 0.035797007 0)
(-0.03922487 0.031839447 0)
(-0.042623311 0.027616593 0)
(-0.045485987 0.023200495 0)
(-0.047830908 0.018639325 0)
(-0.049676621 0.013964767 0)
(-0.051038133 0.0091959434 0)
(-0.051923758 0.004342689 0)
(-0.052332758 -0.00059108618 0)
(-0.052253429 -0.0056039002 0)
(-0.051662074 -0.010691748 0)
(-0.050523156 -0.01584406 0)
(-0.048790006 -0.021037927 0)
(-0.046407497 -0.026231536 0)
(-0.0433171 -0.031355588 0)
(-0.039465399 -0.036299468 0)
(-0.03481789 -0.040883409 0)
(-0.029382477 -0.044797585 0)
(-0.023249105 -0.04747856 0)
(-0.01663973 -0.04790247 0)
(-0.0099653502 -0.044341856 0)
(-0.0040674003 -0.034298727 0)
(-0.00072672185 -0.015041213 0)
(-0.00075287964 0.016200565 0)
(-0.0041173051 0.036563082 0)
(-0.0099568417 0.046931942 0)
(-0.016484587 0.050560559 0)
(-0.022938685 0.050265533 0)
(-0.028996878 0.047863609 0)
(-0.034495401 0.044339754 0)
(-0.039367256 0.040183634 0)
(-0.043601031 0.035640678 0)
(-0.047213382 0.030845532 0)
(-0.050234573 0.025879754 0)
(-0.052699696 0.020794137 0)
(-0.054642294 0.015617849 0)
(-0.0560895 0.010363534 0)
(-0.057058347 0.0050315202 0)
(-0.057553197 -0.00038603781 0)
(-0.057562723 -0.0059016809 0)
(-0.057058644 -0.011525235 0)
(-0.055995627 -0.017260511 0)
(-0.054310554 -0.023097312 0)
(-0.051924826 -0.029002695 0)
(-0.04874941 -0.034909024 0)
(-0.044694587 -0.040694879 0)
(-0.039687412 -0.046148772 0)
(-0.033703096 -0.050894542 0)
(-0.026818571 -0.054246783 0)
(-0.0192804 -0.054976981 0)
(-0.011578837 -0.051047598 0)
(-0.0047274172 -0.039554201 0)
(-0.00084145969 -0.017357666 0)
(-0.00087087321 0.018554851 0)
(-0.0047490442 0.041783062 0)
(-0.011442294 0.053481346 0)
(-0.018856565 0.057420735 0)
(-0.026104332 0.056866415 0)
(-0.032820956 0.05392608 0)
(-0.038834174 0.049747143 0)
(-0.04408845 0.044904153 0)
(-0.048593979 0.039686277 0)
(-0.052392634 0.03425012 0)
(-0.055539857 0.028686409 0)
(-0.058093818 0.023046605 0)
(-0.060107865 0.017354417 0)
(-0.061625005 0.011612425 0)
(-0.062673843 0.0058072568 0)
(-0.063266464 -8.55239e-05 0)
(-0.063393173 -0.0060951806 0)
(-0.063021564 -0.012253542 0)
(-0.062096416 -0.018585162 0)
(-0.060535687 -0.02510019 0)
(-0.058232078 -0.031783058 0)
(-0.055056855 -0.038576102 0)
(-0.050869751 -0.045353085 0)
(-0.045539827 -0.051870595 0)
(-0.038986708 -0.057673584 0)
(-0.031254019 -0.061922068 0)
(-0.022605501 -0.063124284 0)
(-0.013628292 -0.058849951 0)
(-0.0055666702 -0.045697846 0)
(-0.00098550384 -0.020061258 0)
(-0.0010212472 0.021286122 0)
(-0.0055454658 0.047810684 0)
(-0.013293345 0.060980192 0)
(-0.021772247 0.065187285 0)
(-0.029938248 0.064240591 0)
(-0.03738183 0.060600042 0)
(-0.043930053 0.05560924 0)
(-0.049550846 0.049944183 0)
(-0.05428859 0.043944565 0)
(-0.058221624 0.037790238 0)
(-0.061439838 0.031579318 0)
(-0.064031742 0.025360507 0)
(-0.066076057 0.01914783 0)
(-0.067636066 0.01292925 0)
(-0.06875561 0.0066730066 0)
(-0.069454919 0.00033324202 0)
(-0.069730052 -0.0061433452 0)
(-0.069548075 -0.012815718 0)
(-0.06884236 -0.019737777 0)
(-0.067511287 -0.026950448 0)
(-0.065414663 -0.034467971 0)
(-0.062374361 -0.042256409 0)
(-0.058182059 -0.050197341 0)
(-0.052621671 -0.05802145 0)
(-0.04552143 -0.065184404 0)
(-0.036854607 -0.070651262 0)
(-0.026879844 -0.072584907 0)
(-0.016296381 -0.068039888 0)
(-0.0066628302 -0.052983315 0)
(-0.0011710225 -0.023260115 0)
(-0.0012193795 0.024498849 0)
(-0.0065756287 0.054853453 0)
(-0.015647797 0.069641381 0)
(-0.0254144 0.074024705 0)
(-0.034638036 0.072487682 0)
(-0.042868024 0.067924443 0)
(-0.049946874 0.061917229 0)
(-0.055885511 0.055262182 0)
(-0.06078079 0.048355259 0)
(-0.064762558 0.041398537 0)
(-0.06796661 0.034493192 0)
(-0.070520113 0.027679487 0)
(-0.072533074 0.020955806 0)
(-0.074093266 0.014289756 0)
(-0.075262896 0.007625869 0)
(-0.076075592 0.00089162079 0)
(-0.076534746 -0.0059982958 0)
(-0.076608643 -0.013135175 0)
(-0.076224435 -0.020612111 0)
(-0.075262336 -0.028513867 0)
(-0.073547607 -0.036901667 0)
(-0.070844639 -0.045786729 0)
(-0.066857823 -0.055081931 0)
(-0.061250449 -0.064510544 0)
(-0.053705346 -0.073437397 0)
(-0.044060074 -0.080587238 0)
(-0.032514772 -0.083664016 0)
(-0.019880867 -0.079020897 0)
(-0.0081481714 -0.061778643 0)
(-0.0014199754 -0.027112233 0)
(-0.0014924294 0.028345667 0)
(-0.0079513628 0.06320001 0)
(-0.018715305 0.079742752 0)
(-0.030046718 0.084128395 0)
(-0.040474546 0.081706373 0)
(-0.0495248 0.075914778 0)
(-0.057085939 0.068626148 0)
(-0.063242624 0.060775623 0)
(-0.068170012 0.052817618 0)
(-0.072068806 0.044970905 0)
(-0.075134103 0.037331214 0)
(-0.077540493 0.029921389 0)
(-0.079434846 0.022715947 0)
(-0.08093318 0.015655071 0)
(-0.082119234 0.0086534634 0)
(-0.083043116 0.0016061738 0)
(-0.083719724 -0.0056075422 0)
(-0.084123958 -0.013120205 0)
(-0.084183003 -0.0210735 0)
(-0.083765604 -0.029610712 0)
(-0.082666976 -0.038862099 0)
(-0.080591956 -0.048915268 0)
(-0.077141383 -0.059754305 0)
(-0.071816606 -0.07113627 0)
(-0.064078487 -0.082356304 0)
(-0.053518422 -0.091859526 0)
(-0.040162594 -0.096740505 0)
(-0.024886517 -0.092363678 0)
(-0.010263364 -0.072641115 0)
(-0.0017770172 -0.031864733 0)
(-0.0018910498 0.033060873 0)
(-0.0098592915 0.073261426 0)
(-0.022817476 0.091646988 0)
(-0.036046072 0.095721665 0)
(-0.047808763 0.091977055 0)
(-0.057655102 0.084539891 0)
(-0.065573531 0.075631608 0)
(-0.071769005 0.066340679 0)
(-0.07652994 0.057174194 0)
(-0.08015138 0.048354195 0)
(-0.082902027 0.039956045 0)
(-0.085011746 0.031971633 0)
(-0.086668178 0.024340605 0)
(-0.088017614 0.016967422 0)
(-0.089167097 0.0097309531 0)
(-0.090185783 0.0024894574 0)
(-0.091104863 -0.0049173433 0)
(-0.09191345 -0.012667862 0)
(-0.092549309 -0.020960636 0)
(-0.092883564 -0.030012129 0)
(-0.092696464 -0.040047112 0)
(-0.091644729 -0.051271298 0)
(-0.089222684 -0.063802138 0)
(-0.084733103 -0.077509306 0)
(-0.07731869 -0.091688005 0)
(-0.066150719 -0.10450012 0)
(-0.050850895 -0.11225209 0)
(-0.032185481 -0.10887934 0)
(-0.013469559 -0.086447266 0)
(-0.0023418342 -0.037935723 0)
(-0.0025131458 0.039022526 0)
(-0.012615268 0.085631332 0)
(-0.028439999 0.10581707 0)
(-0.043926267 0.10903465 0)
(-0.05708009 0.10332297 0)
(-0.067576168 0.093679496 0)
(-0.075592973 0.082731501 0)
(-0.081522662 0.071721289 0)
(-0.085811307 0.06118761 0)
(-0.08887413 0.051329608 0)
(-0.091066125 0.04217813 0)
(-0.092676862 0.033674687 0)
(-0.093934761 0.025709939 0)
(-0.095014813 0.018143384 0)
(-0.096046299 0.010812815 0)
(-0.097118342 0.0035372689 0)
(-0.098282733 -0.0038841358 0)
(-0.099552136 -0.011675953 0)
(-0.10088967 -0.020097303 0)
(-0.10219152 -0.029448058 0)
(-0.10325346 -0.040071493 0)
(-0.10371938 -0.05233986 0)
(-0.10300573 -0.066590552 0)
(-0.10021091 -0.082939327 0)
(-0.094068784 -0.1008422 0)
(-0.083091262 -0.11827664 0)
(-0.06607923 -0.13060672 0)
(-0.04323627 -0.12969521 0)
(-0.018657938 -0.10461793 0)
(-0.0033441401 -0.046094757 0)
(-0.0035493988 0.046866879 0)
(-0.016745867 0.10116084 0)
(-0.036269834 0.12280076 0)
(-0.054293547 0.12423485 0)
(-0.068681549 0.11562444 0)
(-0.079430094 0.10304348 0)
(-0.087047499 0.089559373 0)
(-0.092202221 0.076538455 0)
(-0.095548537 0.064504 0)
(-0.097644911 0.053587102 0)
(-0.098938488 0.043737694 0)
(-0.099775048 0.034820611 0)
(-0.10041627 0.026660456 0)
(-0.10105781 0.019062355 0)
(-0.10184494 0.011819583 0)
(-0.10288388 0.0047128103 0)
(-0.10424815 -0.0024957377 0)
(-0.10598365 -0.010069677 0)
(-0.1080953 -0.018324569 0)
(-0.11053393 -0.027642597 0)
(-0.11315821 -0.038497893 0)
(-0.11566701 -0.0514716 0)
(-0.11748265 -0.067221543 0)
(-0.11757129 -0.086304307 0)
(-0.11424437 -0.1086401 0)
(-0.10511496 -0.13234607 0)
(-0.087529464 -0.15187633 0)
(-0.060160945 -0.15621009 0)
(-0.02744393 -0.12944843 0)
(-0.0052909021 -0.057858211 0)
(-0.0053622238 0.057690333 0)
(-0.023076759 0.1210118 0)
(-0.047112627 0.14310876 0)
(-0.067554852 0.14123669 0)
(-0.082492583 0.12842947 0)
(-0.092586124 0.11201175 0)
(-0.098870353 0.095460245 0)
(-0.10239408 0.080179078 0)
(-0.10406464 0.066588277 0)
(-0.10459184 0.054679852 0)
(-0.1045037 0.044271961 0)
(-0.1041828 0.035119812 0)
(-0.10390312 0.026963228 0)
(-0.103862 0.019544907 0)
(-0.10420568 0.012613438 0)
(-0.10504714 0.0059172636 0)
(-0.1064747 -0.00080681797 0)
(-0.10857326 -0.0078527061 0)
(-0.111402 -0.015569513 0)
(-0.1149931 -0.024403116 0)
(-0.11932294 -0.034945045 0)
(-0.12424016 -0.047996527 0)
(-0.12932221 -0.06461409 0)
(-0.13360536 -0.086017603 0)
(-0.13517202 -0.11305363 0)
(-0.13071282 -0.14468023 0)
(-0.1154608 -0.17500044 0)
(-0.084948749 -0.18948189 0)
(-0.04228803 -0.16421314 0)
(-0.0091944247 -0.076132188 0)
(-0.0085953358 0.073359681 0)
(-0.032721322 0.14655265 0)
(-0.06139147 0.16680598 0)
(-0.082935347 0.15923762 0)
(-0.09654493 0.14054937 0)
(-0.10406985 0.11931776 0)
(-0.10730159 0.09925711 0)
(-0.10775566 0.081630434 0)
(-0.1065995 0.066609484 0)
(-0.1046603 0.05394498 0)
(-0.10249816 0.043258808 0)
(-0.10048302 0.034160334 0)
(-0.098857271 0.026288 0)
(-0.097783529 0.019318515 0)
(-0.097379665 0.012961077 0)
(-0.097741852 0.0069439867 0)
(-0.098961861 0.00099475374 0)
(-0.10114427 -0.005189851 0)
(-0.10440283 -0.011959328 0)
(-0.108863 -0.019782724 0)
(-0.11465261 -0.029317447 0)
(-0.12185404 -0.041534965 0)
(-0.13037559 -0.057883614 0)
(-0.13965057 -0.080391437 0)
(-0.14805116 -0.11134036 0)
(-0.15192098 -0.15163535 0)
(-0.14439229 -0.19654435 0)
(-0.11620061 -0.22850518 0)
(-0.065463871 -0.21209541 0)
(-0.016757839 -0.10550757 0)
(-0.014215015 0.096856049 0)
(-0.046590302 0.17864685 0)
(-0.07749287 0.19240685 0)
(-0.095885596 0.17570712 0)
(-0.10386297 0.14927751 0)
(-0.10510155 0.1224949 0)
(-0.1022922 0.098883639 0)
(-0.09738558 0.079250216 0)
(-0.091700255 0.063303658 0)
(-0.086047894 0.050424528 0)
(-0.080897072 0.039971504 0)
(-0.076503343 0.031380369 0)
(-0.072998279 0.024183365 0)
(-0.070449371 0.017998892 0)
(-0.068899445 0.012510944 0)
(-0.068392234 0.0074449985 0)
(-0.068990961 0.0025408426 0)
(-0.070782824 -0.0024797761 0)
(-0.073915104 -0.007934747 0)
(-0.078581242 -0.014261476 0)
(-0.08504117 -0.022097805 0)
(-0.093623416 -0.032464384 0)
(-0.10466611 -0.047051631 0)
(-0.11831166 -0.068598648 0)
(-0.13397307 -0.10105204 0)
(-0.14905278 -0.14838784 0)
(-0.15631904 -0.20962542 0)
(-0.14203006 -0.26733317 0)
(-0.09464431 -0.27327958 0)
(-0.029737792 -0.15188776 0)
(-0.023004357 0.13268846 0)
(-0.063219385 0.2150642 0)
(-0.087218532 0.21404544 0)
(-0.09226523 0.1843244 0)
(-0.086260039 0.14909542 0)
(-0.07497978 0.11715972 0)
(-0.061705707 0.091065496 0)
(-0.048422983 0.070690259 0)
(-0.036212477 0.055023002 0)
(-0.025542212 0.042967179 0)
(-0.016543256 0.033593872 0)
(-0.0091845539 0.026178541 0)
(-0.0033696333 0.020175425 0)
(0.0010088986 0.015176184 0)
(0.0040388828 0.010868667 0)
(0.0057726098 0.0070014835 0)
(0.0062149231 0.0033534847 0)
(0.0053323128 -0.0002959272 0)
(0.0029975468 -0.0042167816 0)
(-0.00099855036 -0.0087446073 0)
(-0.0069731921 -0.014411121 0)
(-0.015417642 -0.022123785 0)
(-0.027039655 -0.033519347 0)
(-0.0427769 -0.051569693 0)
(-0.063637854 -0.081336736 0)
(-0.08976298 -0.12994937 0)
(-0.11710149 -0.2027703 0)
(-0.13233158 -0.28990605 0)
(-0.11438111 -0.33869421 0)
(-0.046747091 -0.22486496 0)
(-0.032447626 0.18782356 0)
(-0.071177732 0.24433744 0)
(-0.064109022 0.21551791 0)
(-0.036813724 0.17166281 0)
(-0.0046055988 0.13035551 0)
(0.026536648 0.096779303 0)
(0.054329295 0.071609039 0)
(0.077949129 0.053379406 0)
(0.097427408 0.04023952 0)
(0.11321981 0.030677723 0)
(0.12587796 0.023595458 0)
(0.13591195 0.018220164 0)
(0.14374994 0.014019679 0)
(0.1497283 0.010628821 0)
(0.15409481 0.0077899404 0)
(0.15701729 0.0053104771 0)
(0.15858936 0.0030322888 0)
(0.15882701 0.00080920678 0)
(0.1576843 -0.0015371797 0)
(0.15500057 -0.004221909 0)
(0.15046294 -0.0076007207 0)
(0.14354379 -0.012314452 0)
(0.13334266 -0.019596327 0)
(0.11832515 -0.031883216 0)
(0.09594986 -0.053849851 0)
(0.062661842 -0.093582076 0)
(0.016178358 -0.16208881 0)
(-0.039806958 -0.26558165 0)
(-0.089783292 -0.37353702 0)
(-0.055633527 -0.32785853 0)
(-0.015650301 0.25363631 0)
(-0.018881509 0.23842795 0)
(0.065114821 0.17029386 0)
(0.14641998 0.12069766 0)
(0.21131322 0.083800508 0)
(0.26188742 0.056964749 0)
(0.30090033 0.038890751 0)
(0.33057155 0.027186623 0)
(0.35306545 0.019547151 0)
(0.37023519 0.014421209 0)
(0.38344228 0.010865651 0)
(0.3936423 0.00830113 0)
(0.40151169 0.0063707971 0)
(0.40752849 0.0048554006 0)
(0.41202458 0.0036152248 0)
(0.41522319 0.0025536089 0)
(0.41726178 0.0015951734 0)
(0.4182001 0.00067351489 0)
(0.41803717 -0.00027437449 0)
(0.41667483 -0.0013582791 0)
(0.41387412 -0.0027437462 0)
(0.40917819 -0.0047277652 0)
(0.40172097 -0.0079179623 0)
(0.38982682 -0.013597503 0)
(0.37022721 -0.024492167 0)
(0.33696825 -0.046224348 0)
(0.28130842 -0.089612401 0)
(0.19012223 -0.17249116 0)
(0.04462666 -0.30715742 0)
(-0.001543953 -0.37729098 0)
(0.23833448 0.14841281 0)
(0.33478535 0.13288605 0)
(0.48082763 0.082315214 0)
(0.59035106 0.049636375 0)
(0.65552001 0.030016228 0)
(0.69580091 0.017802996 0)
(0.72243623 0.010512973 0)
(0.74035531 0.0063946574 0)
(0.75265135 0.0040993574 0)
(0.76143273 0.0027877281 0)
(0.76794306 0.0020006486 0)
(0.77288113 0.0014939812 0)
(0.77666694 0.0011396366 0)
(0.77956872 0.00087192798 0)
(0.78176093 0.00065641722 0)
(0.78335675 0.00047283958 0)
(0.78442612 0.00030659462 0)
(0.78500337 0.00014560299 0)
(0.78508393 -1.7706807e-05 0)
(0.7846121 -0.0002087225 0)
(0.7834735 -0.00046705625 0)
(0.78142466 -0.00085548012 0)
(0.77796645 -0.0015096022 0)
(0.77208005 -0.0027276054 0)
(0.76161763 -0.0051787758 0)
(0.74204709 -0.010384975 0)
(0.70394479 -0.021937028 0)
(0.62301537 -0.049161573 0)
(0.45317842 -0.1122272 0)
(0.3399976 -0.17832351 0)
)
;

boundaryField
{
    movingWall
    {
        type            fixedValue;
        value           uniform (1 0 0);
    }
    fixedWalls
    {
        type            noSlip;
    }
    frontAndBack
    {
        type            empty;
    }
}


// ************************************************************************* //
