/*--------------------------------*- C++ -*----------------------------------*\
| =========                 |                                                 |
| \\      /  F ield         | OpenFOAM: The Open Source CFD Toolbox           |
|  \\    /   O peration     | Version:  2312                                  |
|   \\  /    A nd           | Website:  www.openfoam.com                      |
|    \\/     M anipulation  |                                                 |
\*---------------------------------------------------------------------------*/
FoamFile
{
    version     2.0;
    format      ascii;
    arch        "LSB;label=32;scalar=64";
    class       volScalarField;
    location    "0.5";
    object      p;
}
// * * * * * * * * * * * * * * * * * * * * * * * * * * * * * * * * * * * * * //

dimensions      [0 2 -2 0 0 0 0];

internalField   nonuniform List<scalar> 
900
(
-2.610171e-08
-0.00024585715
-0.00042330542
-0.00049249146
-0.00041173863
-0.00016886459
0.0002314401
0.00077891796
0.0014619177
0.0022682291
0.0031849448
0.0041981402
0.0052926154
0.0064517597
0.0076575268
0.0088905063
0.010130079
0.011354602
0.012541669
0.013668446
0.01471202
0.015649758
0.016459661
0.017120798
0.017614087
0.017924209
0.01804493
0.017991167
0.017811036
0.01755281
0.00024335479
-4.2699035e-06
-0.00013335883
-0.00015032886
-4.093874e-05
0.00020763231
0.00059652935
0.001120712
0.0017722768
0.0025413839
0.0034165571
0.0043847893
0.00543156
0.006540846
0.007695168
0.0088756932
0.010062436
0.011234405
0.012369916
0.013446956
0.014443596
0.015338499
0.016111546
0.016744682
0.017223078
0.017537036
0.017686396
0.017686722
0.017557809
0.017298408
0.00042612037
0.00011990745
-1.4001252e-05
-1.892174e-05
9.8692564e-05
0.00034860779
0.00073247299
0.0012464652
0.0018840716
0.0026366255
0.003493522
0.004442393
0.005469204
0.0065583202
0.0076925863
0.0088534528
0.010021146
0.0111749
0.01229322
0.013354284
0.014336403
0.015218589
0.015981278
0.016607275
0.017082837
0.017399235
0.017556738
0.017568049
0.0174323
0.017111156
0.00050725655
0.00012984731
-2.8404588e-05
-3.8476311e-05
7.8193068e-05
0.00032776329
0.00071053949
0.0012223419
0.0018569676
0.002606271
0.0034601494
0.0044066525
0.0054320679
0.0065209919
0.0076564139
0.0088198409
0.0099914663
0.011150396
0.012274934
0.013342984
0.014332529
0.01522224
0.015992234
0.016624999
0.017106333
0.017426545
0.017584327
0.017589097
0.017425871
0.017030022
0.00044110871
5.3200488e-06
-0.00017776212
-0.00019710177
-8.3578075e-05
0.00016647191
0.00055200386
0.0010681877
0.0017087511
0.0024657337
0.003329278
0.0042876554
0.0053273121
0.0064329189
0.0075874407
0.0087722411
0.0099672404
0.011151123
0.01230164
0.013395999
0.01441136
0.01532547
0.01611745
0.016768741
0.017263952
0.017591901
0.017749605
0.017744429
0.017553244
0.017095388
0.00020732862
-0.00027563539
-0.00048147697
-0.00051067785
-0.00039981061
-0.00014665413
0.00024668884
0.0007747137
0.0014308934
0.0022072313
0.0030939102
0.0040792417
0.0051496652
0.0062897619
0.0074822949
0.0087082818
0.0099471249
0.011176795
0.012374132
0.013515212
0.014575861
0.015532306
0.016362027
0.017044754
0.017563348
0.017904861
0.018064873
0.018049914
0.017832702
0.017323033
-0.00020127061
-0.00072647933
-0.00095366535
-0.00099192095
-0.00088168698
-0.00062152279
-0.00021434417
0.00033369972
0.0010157344
0.0018235868
0.0027473307
0.0037751732
0.0048934046
0.0060863708
0.0073364725
0.0086241958
0.0099282033
0.011225474
0.012491579
0.013701029
0.014827779
0.015845924
0.016730625
0.017459224
0.018012279
0.0183748
0.018541118
0.018517811
0.018275468
0.017717061
-0.00078993848
-0.001357984
-0.0016063115
-0.0016523227
-0.0015398865
-0.0012680259
-0.00084034206
-0.0002636195
0.00045486343
0.001306667
0.0022816537
0.0033678208
0.0045512036
0.0058158023
0.0071435315
0.0085141968
0.009905538
0.011293289
0.012651419
0.013952427
0.015167844
0.016268962
0.017227864
0.018018738
0.018619167
0.019011703
0.01918945
0.019159627
0.018891403
0.018281108
-0.0015665093
-0.0021821419
-0.0024527736
-0.0025053519
-0.0023875729
-0.0020988681
-0.001643539
-0.0010290625
-0.00026318577
0.00064531387
0.001686015
0.0028466351
0.0041128893
0.0054683684
0.006894428
0.0083700988
0.009872071
0.011374624
0.012849821
0.014267716
0.015596822
0.016804871
0.017859978
0.018732219
0.0193953
0.019828639
0.020023897
0.0199893
0.019692634
0.019022418
-0.0025427527
-0.0032137044
-0.0035090123
-0.0035672757
-0.0034409093
-0.0031298903
-0.0026393721
-0.0019776614
-0.0011530702
-0.00017478458
0.00094643531
0.0021979894
0.0035652513
0.0050313947
0.0065772121
0.0081809357
0.0098181599
0.011461571
0.013081085
0.014643898
0.01611488
0.017457344
0.018634353
0.019610635
0.020354768
0.020841987
0.021061989
0.02102422
0.020694822
0.019952717
-0.0037347543
-0.0044710803
-0.0047944432
-0.0048577874
-0.0047194784
-0.0043803338
-0.0038466411
-0.0031277601
-0.0022327052
-0.001171155
4.5746101e-05
0.0014050703
0.0028918759
0.0044889811
0.0061766962
0.0079325108
0.0097310118
0.011543247
0.013336858
0.015075832
0.016720762
0.018229575
0.019558959
0.020666676
0.021514444
0.022071741
0.022325367
0.022286055
0.021917952
0.021088286
-0.0051631258
-0.0059770879
-0.0063327858
-0.0064007661
-0.0062469104
-0.0058733381
-0.0052878948
-0.0045013149
-0.0035235065
-0.0023647469
-0.0010366098
0.00044766161
0.0020728838
0.0038216578
0.0056739832
0.0076067704
0.0095939437
0.011604933
0.013605166
0.015555202
0.017410775
0.019123372
0.020641713
0.021914494
0.022894157
0.023542103
0.023840692
0.023801797
0.023387154
0.022449967
-0.0068533548
-0.0077597545
-0.0081529637
-0.008225113
-0.0080515984
-0.0076365195
-0.0069898835
-0.0061242423
-0.0050506588
-0.0037801511
-0.0023247765
-0.00069806571
0.0010846688
0.003006007
0.0050459568
0.0071814323
0.0093855129
0.01162698
0.013869124
0.01606908
0.018177309
0.020137799
0.021889433
0.023369144
0.024516763
0.025282179
0.025640806
0.025605074
0.025133759
0.024063364
-0.0088364469
-0.0098533595
-0.010290218
-0.010365766
-0.010167551
-0.0097026479
-0.0089840717
-0.0080267915
-0.0068433778
-0.005445783
-0.0038466261
-0.0020596941
-0.00010029114
0.0020143862
0.0042648182
0.0066284797
0.0090785114
0.011583494
0.014105284
0.016597987
0.019006735
0.02126711
0.023306103
0.025045496
0.026407941
0.027326731
0.027766239
0.027737996
0.027196826
0.025959246
-0.011149978
-0.012299935
-0.01278763
-0.012865039
-0.012635482
-0.012110479
-0.011307235
-0.010243941
-0.0089351411
-0.0073939881
-0.0056337854
-0.0036685655
-0.0015134529
0.00081494847
0.0032980826
0.005914673
0.0086392257
0.01144098
0.014281622
0.017113331
0.019876431
0.022497636
0.024890022
0.026956168
0.028595383
0.029716852
0.030267199
0.030253848
0.029625512
0.028174161
-0.013839737
-0.0151515
-0.015698299
-0.015774456
-0.015504237
-0.014905791
-0.014002154
-0.012815795
-0.011363838
-0.0096609903
-0.007721433
-0.0055594816
-0.0031899313
-0.00062840351
0.0021081698
0.005000689
0.0080262749
0.011156604
0.014355157
0.017574151
0.020750685
0.02380313
0.026629172
0.02910773
0.031106737
0.03250026
0.033206195
0.033221223
0.032482954
0.030751391
-0.016962311
-0.01847346
-0.019088513
-0.019157295
-0.018832677
-0.018142672
-0.017118387
-0.015787933
-0.01417176
-0.012286587
-0.010147764
-0.00777002
-0.005167746
-0.00235524
0.0006528897
0.0038408783
0.0071900872
0.010676906
0.014269419
0.017923135
0.02157518
0.025137941
0.028493777
0.031493902
0.033965038
0.035730393
0.03666129
0.036730487
0.035852972
0.03374278
-0.02058927
-0.022349894
-0.023042433
-0.023092123
-0.022692128
-0.021885071
-0.020713103
-0.019211638
-0.017405321
-0.01531344
-0.012952925
-0.010339184
-0.0074862704
-0.0044069329
-0.0011128239
0.0023848363
0.0060736023
0.009937276
0.013952277
0.018082266
0.022270009
0.02642733
0.030424599
0.034083566
0.037179216
0.03946242
0.040729493
0.040903898
0.03985205
0.037213188
-0.02481429
-0.026891928
-0.027669028
-0.027677666
-0.027169505
-0.026208583
-0.024851822
-0.023143806
-0.021114274
-0.01878569
-0.016177103
-0.013305048
-0.010183514
-0.0068236954
-0.0032338738
0.00058031113
0.004614593
0.0088631518
0.013315198
0.017949075
0.022721795
0.027554628
0.032315296
0.036800363
0.040725326
0.043742105
0.045528447
0.045911155
0.044651347
0.04125253
-0.029765881
-0.032251238
-0.033112329
-0.033039353
-0.032371048
-0.031202186
-0.029608706
-0.027646098
-0.0253499
-0.022746326
-0.019857176
-0.016700761
-0.013291544
-0.0096394881
-0.0057494998
-0.0016210781
0.0027512506
0.0073748411
0.01225623
0.017396093
0.022777354
0.02834671
0.033988198
0.039490017
0.044511393
0.048579082
0.051190616
0.051991294
0.05051709
0.046007847
-0.035631117
-0.038642105
-0.039566348
-0.039337562
-0.038426034
-0.036968983
-0.035065205
-0.032782012
-0.030160829
-0.027231938
-0.024020549
-0.020547547
-0.016828668
-0.012873341
-0.0086836165
-0.0042531041
0.00043367514
0.0053992335
0.010671145
0.016279241
0.022245724
0.028564624
0.035168182
0.041874809
0.048317496
0.053889297
0.057834427
0.059475533
0.057880503
0.051761412
-0.042701319
-0.046377647
-0.047295884
-0.046776396
-0.045488141
-0.04362298
-0.041303826
-0.038608509
-0.035583073
-0.032261581
-0.028673106
-0.024841883
-0.02078579
-0.016514638
-0.012028645
-0.0073168899
-0.0023553197
0.0028940588
0.0084801852
0.01446585
0.020923534
0.027918656
0.035475906
0.043512534
0.0517159
0.05939322
0.065486236
0.068789625
0.067440357
0.059095714
-0.051461911
-0.055928824
-0.056662897
-0.0556083
-0.053727595
-0.051273986
-0.048388662
-0.045153945
-0.04161657
-0.037812766
-0.033775193
-0.029531664
-0.02510261
-0.020498849
-0.015719891
-0.01075232
-0.0055662729
-0.00011074531
0.0056782548
0.011895985
0.018667147
0.026145341
0.034494189
0.043825363
0.054032481
0.064504267
0.073948752
0.08040529
0.080282639
0.069206056
-0.062774349
-0.068016769
-0.068149737
-0.066118928
-0.063295637
-0.059981239
-0.056314035
-0.052365418
-0.048173604
-0.043772471
-0.039196055
-0.034474277
-0.029628953
-0.024671181
-0.019599792
-0.0144
-0.0090399039
-0.0034650715
0.0024037716
0.008677642
0.01552443
0.023184068
0.03198615
0.042330461
0.054524768
0.068376157
0.08270725
0.094744544
0.098047828
0.084561987
-0.078260708
-0.083745452
-0.082336984
-0.078540522
-0.074210021
-0.069628915
-0.064880849
-0.059992568
-0.054973658
-0.049844646
-0.044634391
-0.039369645
-0.03406903
-0.028740239
-0.023378779
-0.01796724
-0.012474142
-0.0068478304
-0.0010006122
0.0051785125
0.011884106
0.019420591
0.028274794
0.03917772
0.053026787
0.070472907
0.091174768
0.11211787
0.12323368
0.11036856
-0.1011109
-0.10477463
-0.099731504
-0.09277432
-0.086052683
-0.079631943
-0.073429212
-0.067356849
-0.06135268
-0.05539847
-0.049502247
-0.043675025
-0.03792212
-0.032239951
-0.026615068
-0.021023788
-0.015431569
-0.0097881436
-0.0040130187
0.0020209193
0.0085121555
0.015814844
0.02455111
0.035768423
0.051004227
0.071988387
0.10003492
0.13326808
0.15920354
0.15575144
-0.13762463
-0.13340999
-0.12037055
-0.10786712
-0.097454636
-0.088479772
-0.080473038
-0.073083969
-0.066088252
-0.059374008
-0.052893104
-0.046618135
-0.040527062
-0.034596257
-0.028797692
-0.023097214
-0.017452218
-0.011807028
-0.0060794961
-0.00012694284
0.0062853519
0.013578809
0.022532341
0.034528811
0.051788998
0.077020721
0.11383712
0.1622533
0.20990085
0.23064741
-0.20133077
-0.17115928
-0.1425997
-0.12121263
-0.10561658
-0.093549006
-0.083784471
-0.075373805
-0.067754318
-0.060654079
-0.053937042
-0.047521755
-0.041352656
-0.035386001
-0.029581
-0.023894292
-0.018274456
-0.012653443
-0.00693094
-0.00093810791
0.0056446004
0.013352214
0.02318591
0.036921387
0.057512386
0.089414957
0.13860211
0.20769763
0.28398408
0.35393412
-0.33334727
-0.21167551
-0.15504784
-0.12439879
-0.10411923
-0.090116985
-0.080123604
-0.072102735
-0.064976788
-0.058361223
-0.052091329
-0.046065062
-0.040222967
-0.034528932
-0.028951101
-0.023452085
-0.017981467
-0.012463304
-0.0067725476
-0.00068790318
0.0061390803
0.014398628
0.02531519
0.041040467
0.06526971
0.10415712
0.16727883
0.26383248
0.39617231
0.61529218
-0.62138647
-0.24181912
-0.12304671
-0.094939886
-0.078346949
-0.0677457
-0.062323662
-0.05856545
-0.054717376
-0.050542578
-0.046102368
-0.041444247
-0.036626811
-0.031711501
-0.026738759
-0.021721258
-0.016642739
-0.011450414
-0.0060370967
-0.00021080106
0.006417099
0.014527643
0.025294339
0.040831807
0.064867501
0.10408702
0.17092159
0.28902625
0.5261094
1.0814531
)
;

boundaryField
{
    movingWall
    {
        type            zeroGradient;
    }
    fixedWalls
    {
        type            zeroGradient;
    }
    frontAndBack
    {
        type            empty;
    }
}


// ************************************************************************* //
