/*--------------------------------*- C++ -*----------------------------------*\
| =========                 |                                                 |
| \\      /  F ield         | OpenFOAM: The Open Source CFD Toolbox           |
|  \\    /   O peration     | Version:  2312                                  |
|   \\  /    A nd           | Website:  www.openfoam.com                      |
|    \\/     M anipulation  |                                                 |
\*---------------------------------------------------------------------------*/
FoamFile
{
    version     2.0;
    format      ascii;
    arch        "LSB;label=32;scalar=64";
    class       surfaceScalarField;
    location    "0.5";
    object      phi;
}
// * * * * * * * * * * * * * * * * * * * * * * * * * * * * * * * * * * * * * //

dimensions      [0 3 -1 0 0 0 0];

oriented        oriented;

internalField   nonuniform List<scalar> 
1740
(
-3.3718804e-07
3.3739743e-07
-9.9248537e-06
9.587664e-06
-2.7606305e-05
1.7681448e-05
-4.9802378e-05
2.2196053e-05
-7.3766068e-05
2.396368e-05
-9.7748999e-05
2.3982934e-05
-0.00012072629
2.2977286e-05
-0.00014210546
2.1379155e-05
-0.00016151309
1.9407599e-05
-0.00017867445
1.7161322e-05
-0.00019335913
1.4684658e-05
-0.00020536193
1.2002781e-05
-0.00021449909
9.1371631e-06
-0.00022061037
6.1112874e-06
-0.00022356285
2.9524807e-06
-0.00022325532
-3.0753376e-07
-0.00021962258
-3.6327476e-06
-0.00021264057
-6.9820075e-06
-0.00020233129
-1.0309277e-05
-0.00018876786
-1.3563402e-05
-0.00017208137
-1.6686459e-05
-0.00015247355
-1.9607817e-05
-0.00013024546
-2.2228097e-05
-0.00010586161
-2.4383861e-05
-8.0077091e-05
-2.5784525e-05
-5.4147406e-05
-2.5929691e-05
-3.0095756e-05
-2.4051662e-05
-1.0942409e-05
-1.9153327e-05
-4.8790362e-07
-1.0454388e-05
-4.8777141e-07
-9.5418695e-06
9.8792648e-06
-3.8693124e-05
3.8738909e-05
-8.2277109e-05
6.1265451e-05
-0.00013452496
7.4443906e-05
-0.00019050877
7.9947464e-05
-0.00024668432
8.015845e-05
-0.00030072271
7.701564e-05
-0.00035112882
7.1785235e-05
-0.00039689978
6.5178521e-05
-0.00043730056
5.7562082e-05
-0.00047174343
4.9127513e-05
-0.00049973333
3.9992676e-05
-0.0005208481
3.0251938e-05
-0.00053473478
1.9997974e-05
-0.00054111283
9.3305276e-06
-0.00053978134
-1.6390382e-06
-0.00053062582
-1.278827e-05
-0.00051363001
-2.3977802e-05
-0.00048888553
-3.5053732e-05
-0.0004566062
-4.5842716e-05
-0.00041714874
-5.6143915e-05
-0.00037104982
-6.5706756e-05
-0.00031909818
-7.4179769e-05
-0.0002624713
-8.1010764e-05
-0.00020296776
-8.5288073e-05
-0.00014333602
-8.5561438e-05
-8.7608623e-05
-7.9779135e-05
-4.1187719e-05
-6.5574337e-05
-1.0203908e-05
-4.1438305e-05
-1.0691669e-05
-1.7986985e-05
2.7866246e-05
-6.2507923e-05
8.3259799e-05
-0.00012512013
0.00012387764
-0.00019828716
0.00014761094
-0.00027589793
0.00015755823
-0.00035350655
0.00015776705
-0.00042809188
0.00015160094
-0.00049763304
0.00014132637
-0.00056072963
0.00012827509
-0.00061634313
0.00011317557
-0.00066364986
9.6434246e-05
-0.0007019689
7.8311717e-05
-0.00073073188
5.9014921e-05
-0.00074947381
3.8739902e-05
-0.00075783399
1.7690699e-05
-0.00075556185
-3.9112e-06
-0.00074252763
-2.5822504e-05
-0.00071873331
-4.7772131e-05
-0.00068432824
-6.9458793e-05
-0.00063962907
-9.0541888e-05
-0.00058514987
-0.00011062315
-0.00052165353
-0.00012920316
-0.00045024529
-0.00014558805
-0.0003725388
-0.00015871727
-0.00029092286
-0.00016690401
-0.00020892399
-0.0001675603
-0.00013157302
-0.00015713004
-6.5545298e-05
-0.00013160194
-1.8800473e-05
-8.8183245e-05
-2.9492149e-05
-2.3476841e-05
5.1343095e-05
-7.9071129e-05
0.00013885404
-0.00015536443
0.0002001709
-0.00024321402
0.00023546051
-0.00033563173
0.00024997594
-0.00042764453
0.00024977985
-0.00051587067
0.00023982707
-0.00059801745
0.00022347313
-0.00067246978
0.00020272741
-0.00073801737
0.00017872315
-0.00079369923
0.0001521161
-0.00083872553
0.00012333802
-0.00087244282
9.2732215e-05
-0.00089432147
6.0618536e-05
-0.00090395434
2.732355e-05
-0.00090106174
-6.8038187e-06
-0.00088550166
-4.1382594e-05
-0.00085728298
-7.5990819e-05
-0.00081658382
-0.00011015799
-0.00076377605
-0.00014334969
-0.00069946163
-0.00017493761
-0.00062453181
-0.00020413302
-0.0005402705
-0.00022984939
-0.0004485323
-0.00025045551
-0.00035202588
-0.00026341049
-0.00025470716
-0.00026487909
-0.00016221666
-0.00024962051
-8.2187491e-05
-0.00021163104
-2.4241602e-05
-0.00014612919
-5.3733714e-05
-2.6903527e-05
7.8246613e-05
-9.0282037e-05
0.00020223252
-0.0001765136
0.00028640244
-0.00027505588
0.00033400277
-0.00037815709
0.00035307714
-0.00048043902
0.00035206178
-0.000578289
0.00033767705
-0.00066926327
0.00031444739
-0.00075163412
0.00028509824
-0.00082410112
0.00025119014
-0.00088562985
0.00021364483
-0.00093537068
0.00017307885
-0.00097262146
0.00012998299
-0.00099681247
8.4809559e-05
-0.0010075032
3.8014326e-05
-0.0010043864
-9.9206195e-06
-0.00098729729
-5.8471758e-05
-0.00095622923
-0.00010705887
-0.00091135512
-0.00015503211
-0.00085305643
-0.00020164842
-0.00078196538
-0.0002460287
-0.00069903143
-0.00028706699
-0.00060563319
-0.00032324761
-0.0005037684
-0.00035232026
-0.00039635796
-0.00037082093
-0.00028768063
-0.00037355645
-0.0001838951
-0.00035340601
-9.3508993e-05
-0.00030201714
-2.761539e-05
-0.00021202276
-8.1349084e-05
-2.9276565e-05
0.00010752315
-9.8584142e-05
0.00027154007
-0.00019270358
0.00038052186
-0.00029989059
0.00044118975
-0.00041167379
0.00046486032
-0.00052228482
0.0004626728
-0.00062790633
0.00044329854
-0.00072598262
0.00041252366
-0.00081471718
0.00037383278
-0.00089276124
0.00032923418
-0.00095904277
0.00027992635
-0.0010126805
0.00022671664
-0.0010529435
0.00017024594
-0.0010792327
0.00011109881
-0.001091076
4.9857629e-05
-0.0010881302
-1.2866321e-05
-0.0010701907
-7.6411249e-05
-0.0010372091
-0.00014004051
-0.00098931816
-0.00020292303
-0.00092686739
-0.0002640992
-0.00085047307
-0.00032242304
-0.00076109524
-0.00037644483
-0.00066016326
-0.00042417958
-0.00054978496
-0.00046269856
-0.00043308079
-0.0004875251
-0.00031466804
-0.00049196917
-0.00020126086
-0.00046681319
-0.00010224935
-0.00040102869
-3.0038786e-05
-0.00028423328
-0.00011138792
-3.1331871e-05
0.00013885498
-0.00010595588
0.00034616405
-0.0002073332
0.00048189917
-0.00032261714
0.00055647368
-0.000442613
0.00058485617
-0.00056113391
0.00058119369
-0.00067414025
0.00055630486
-0.00077896424
0.00051734763
-0.00087375309
0.00046862161
-0.00095712816
0.00041260923
-0.0010279992
0.00035079734
-0.0010854698
0.00028418733
-0.0011287916
0.00021356775
-0.0011573411
0.00013964838
-0.0011706112
6.3127762e-05
-0.0011682114
-1.5266092e-05
-0.0011498766
-9.4746008e-05
-0.0011154882
-0.00017442895
-0.0010651033
-0.00025330791
-0.00099899903
-0.00033020353
-0.00091773427
-0.00040368779
-0.00082224326
-0.00047193584
-0.00071398252
-0.00053244032
-0.00059516947
-0.00058151164
-0.00046915687
-0.00061353769
-0.00034097124
-0.00062015476
-0.00021797807
-0.0005898064
-0.00011052376
-0.00050848304
-3.228662e-05
-0.00036247044
-0.00014367459
-3.3528111e-05
0.00017238307
-0.0001137322
0.00042636811
-0.00022275475
0.00059092172
-0.00034662726
0.00068034619
-0.00047538134
0.00071361024
-0.00060236116
0.00070817349
-0.00072327128
0.00067721495
-0.0008353174
0.00062939372
-0.00093659095
0.00056989514
-0.0010256932
0.00050171145
-0.0011015291
0.00042663326
-0.0011632008
0.00034585903
-0.0012099521
0.00026031911
-0.0012411394
0.00017083572
-0.0012562171
7.8205497e-05
-0.0012547351
-1.6748098e-05
-0.0012363459
-0.00011313518
-0.0012008294
-0.00020994546
-0.0011481278
-0.00030600951
-0.001078401
-0.00039993038
-0.00099210562
-0.00048998317
-0.00089011218
-0.00057392927
-0.00077388408
-0.00064866841
-0.00064575778
-0.00070963795
-0.00050936934
-0.00074992612
-0.00037025226
-0.00075927182
-0.0002365588
-0.00072349992
-0.00011973321
-0.0006253086
-3.482685e-05
-0.00044737687
-0.00017850141
-3.6122545e-05
0.00020850561
-0.00012272961
0.00051297517
-0.00024045799
0.00070865011
-0.0003740914
0.0008139796
-0.00051279081
0.00085230965
-0.00064936406
0.00084474673
-0.00077922074
0.0008070716
-0.00089942403
0.00074959698
-0.0010080103
0.00067848136
-0.0011035717
0.00059727285
-0.0011850248
0.00050808636
-0.0012514869
0.0004123211
-0.0013022081
0.00031104036
-0.0013365323
0.00020515997
-0.0013538749
9.5548053e-05
-0.0013537148
-1.6908167e-05
-0.0013355987
-0.00013125133
-0.0012991694
-0.00024637475
-0.0012442074
-0.00036097158
-0.0011706999
-0.00047343786
-0.0010789435
-0.00058173956
-0.00096969381
-0.00068317895
-0.00084438976
-0.00077397245
-0.00070549134
-0.00084853636
-0.000556974
-0.00089844344
-0.00040499593
-0.00091124987
-0.00025867307
-0.0008698228
-0.00013076459
-0.00075321703
-3.7925249e-05
-0.00054021625
-0.00021642661
-3.9262454e-05
0.00024776807
-0.00013345672
0.00060716947
-0.0002614035
0.00083659692
-0.00040642481
0.00095900092
-0.00055666949
0.0010025543
-0.00070432507
0.0009924023
-0.00084446498
0.0009472115
-0.00097399841
0.00087913039
-0.0010909145
0.00079539747
-0.0011938161
0.00070017438
-0.0012816562
0.00059592648
-0.0013535931
0.000484258
-0.0014089054
0.00036635272
-0.0014469395
0.00024319402
-0.0014670759
0.00011568449
-0.0014687145
-1.5269612e-05
-0.0014512703
-0.0001486955
-0.0014142083
-0.00028343678
-0.0013570885
-0.00041809136
-0.0012796534
-0.00055087304
-0.0011819588
-0.00067943414
-0.001064569
-0.00080056878
-0.00092884258
-0.00090969881
-0.00077735053
-0.0010000284
-0.00061446168
-0.0010613323
-0.00044709803
-0.0010786135
-0.00028556771
-0.0010313531
-0.00014424879
-0.00089453597
-4.1752478e-05
-0.00064271254
-0.00025817915
-4.3054151e-05
0.00029082225
-0.00014629409
0.00071040945
-0.0002863193
0.00097662217
-0.000444699
0.0011173806
-0.00060838488
0.0011662402
-0.00076884325
0.0011528607
-0.00092076981
0.001099138
-0.0010609166
0.0010192772
-0.0011872459
0.00092172682
-0.0012984046
0.00081133307
-0.0013934217
0.00069094363
-0.0014715359
0.00056237213
-0.0015320887
0.00042690561
-0.0015744545
0.00028555974
-0.0015979915
0.00013922156
-0.001602017
-1.124418e-05
-0.0015857874
-0.00016492506
-0.0015485422
-0.00032068192
-0.0014895483
-0.00047708535
-0.0014082064
-0.00063221493
-0.001304219
-0.0007834215
-0.0011778429
-0.00092694495
-0.0010302603
-0.0010572813
-0.000864109
-0.0011661797
-0.00068419523
-0.001241246
-0.00049836841
-0.0012644404
-0.00031842423
-0.0012112972
-0.00016077044
-0.0010521898
-4.6460316e-05
-0.00075702263
-0.00030463953
-4.7605614e-05
0.00033842789
-0.00016161765
0.0008244215
-0.00031591277
0.0011309173
-0.00048993663
0.0012914045
-0.00066921274
0.0013455163
-0.00084436803
0.001328016
-0.0010096808
0.0012644508
-0.0011617555
0.0011713519
-0.0012985658
0.0010585371
-0.0014188556
0.00093162295
-0.0015217891
0.00079387714
-0.001606743
0.00064732604
-0.0016731737
0.00049333628
-0.001720523
0.00033290907
-0.0017481505
0.00016684906
-0.0017553011
-4.0935135e-06
-0.0017410372
-0.00017918903
-0.0017043252
-0.0003573939
-0.001644048
-0.00053736256
-0.0015591384
-0.00071712452
-0.0014487876
-0.0008937723
-0.0013127716
-0.0010629609
-0.0011519383
-0.0012181146
-0.00096889415
-0.0013492239
-0.00076890253
-0.0014412376
-0.00056092878
-0.0014724141
-0.00035863843
-0.0014135875
-0.0001810222
-0.001229806
-5.2229806e-05
-0.00088581506
-0.00035686927
-5.3053474e-05
0.0003914814
-0.00017988342
0.00095125144
-0.00035101921
0.0013020531
-0.00054331597
0.0014837012
-0.00074058496
0.0015427853
-0.00093247866
0.0015199097
-0.0011128249
0.0014447971
-0.0012781093
0.0013366364
-0.0014263802
0.0012068081
-0.0015565583
0.0010618011
-0.0016680274
0.00090534628
-0.0017603846
0.00073968329
-0.0018332744
0.00056622607
-0.0018862666
0.00038590123
-0.0019187572
0.00019933972
-0.0019299491
7.0983489e-06
-0.0019186734
-0.00019046468
-0.0018835816
-0.00039248568
-0.0018230608
-0.00059788339
-0.0017354144
-0.00080477086
-0.0016191074
-0.0010100793
-0.0014731821
-0.0012088862
-0.0012978989
-0.0013933978
-0.0010956458
-0.0015514769
-0.0008721091
-0.0016647743
-0.00063757632
-0.0017069468
-0.00040807755
-0.0016430863
-0.00020594041
-0.0014319431
-5.9308083e-05
-0.0010324475
-0.00041617731
-5.9585625e-05
0.00045106704
-0.00020169952
0.0010933653
-0.00039272554
0.0014930792
-0.000606334
0.0016973097
-0.00082427574
0.0017607271
-0.0010350789
0.0017307128
-0.0012321027
0.0016418209
-0.0014117731
0.0015163069
-0.0015723109
0.0013673459
-0.0017129288
0.001202419
-0.0018333481
0.0010257656
-0.0019334988
0.00083983401
-0.0020133147
0.00064604199
-0.0020725787
0.00044516519
-0.0021108038
0.00023756491
-0.0021270922
2.338678e-05
-0.0021201923
-0.00019736456
-0.0020882939
-0.00042438409
-0.0020291874
-0.00065698986
-0.0019403504
-0.00089360792
-0.0018192365
-0.0011311932
-0.0016637931
-0.0013643296
-0.0014732989
-0.001583892
-0.0012495876
-0.0017751881
-0.000998625
-0.0019157369
-0.00073221843
-0.0019733534
-0.00046939783
-0.001905907
-0.00023687311
-0.0016644679
-6.8052208e-05
-0.0012012683
-0.0004842296
-6.7468919e-05
0.00051853596
-0.00022790976
0.0012538061
-0.00044250631
0.0017076757
-0.00068097426
0.0019357777
-0.00092257805
0.0020023309
-0.0011545635
0.0019626983
-0.0013698339
0.0018570914
-0.0015648605
0.0017113334
-0.0017381841
0.0015406696
-0.0018894702
0.0013537051
-0.0020189366
0.001155232
-0.0021269947
0.00094789215
-0.0022140008
0.00073304815
-0.0022800657
0.00051123007
-0.0023248965
0.00028239575
-0.002347649
4.6139356e-05
-0.0023468679
-0.00019814568
-0.0023203389
-0.00045091317
-0.0022651244
-0.00071220439
-0.0021776484
-0.00098108389
-0.002053991
-0.0012548506
-0.0018905015
-0.0015278191
-0.0016848771
-0.0017895164
-0.0014378172
-0.0020222481
-0.0011552113
-0.0021983428
-0.00085050808
-0.0022780566
-0.00054653204
-0.002209883
-0.00027584799
-0.0019351519
-7.9001629e-05
-0.0013981146
-0.00056323124
-7.709149e-05
0.00059562745
-0.00025971257
0.0014364272
-0.00050240505
0.0019503682
-0.00076991564
0.0022032883
-0.001038506
0.0022709213
-0.0012939911
0.0022181835
-0.0015288877
0.002091988
-0.0017398879
0.0019223336
-0.0019260686
0.0017268503
-0.0020877685
0.0015154051
-0.002225911
0.0012933745
-0.0023415791
0.0010635603
-0.0024357224
0.00082719149
-0.0025089305
0.00058443819
-0.0025612395
0.00033470478
-0.0025919526
7.6852357e-05
-0.0025994953
-0.00019060296
-0.0025812467
-0.00046916186
-0.0025334605
-0.00075999053
-0.0024512771
-0.0010632672
-0.002328972
-0.0013771557
-0.0021606269
-0.0016961642
-0.0019414689
-0.0020086743
-0.0016700937
-0.0022936233
-0.0013515609
-0.0025168756
-0.001000849
-0.0026287686
-0.00064550809
-0.0025652238
-0.00032604778
-0.0022546122
-9.3015779e-05
-0.0016311467
-0.00065624697
-8.9032669e-05
0.00068466014
-0.00029884321
0.0016462378
-0.00057529359
0.0022268186
-0.00087680926
0.002504804
-0.0011760398
0.0025701519
-0.001457268
0.0024994116
-0.0017127936
0.0023475137
-0.0019398131
0.0021493531
-0.0021382482
0.0019252855
-0.0023094063
0.0016865632
-0.0024551822
0.0014391505
-0.0025775662
0.0011859443
-0.0026783101
0.00092793538
-0.0027586713
0.00066479934
-0.0028191895
0.00039522303
-0.0028594687
0.00011713151
-0.0028779621
-0.00017210953
-0.0028717245
-0.00047539944
-0.0028361958
-0.00079551917
-0.0027650542
-0.0011344088
-0.0026503161
-0.0014918939
-0.0024829604
-0.0018635199
-0.0022544832
-0.0022371515
-0.001959809
-0.0025882975
-0.0016016949
-0.0028749898
-0.0011959729
-0.0030344905
-0.00077583454
-0.0029853622
-0.00039267234
-0.0026377744
-0.0001115474
-0.0019122717
-0.00076779439
-0.00010418139
0.00078884156
-0.00034785624
0.0018899127
-0.00066524035
0.0025442028
-0.0010066323
0.002846196
-0.0013403951
0.0029039147
-0.0016492986
0.0028083151
-0.0019257681
0.0026239833
-0.0021679454
0.0023915303
-0.0023770306
0.0021343708
-0.0025556842
0.0018652168
-0.0027071005
0.0015905667
-0.0028344549
0.0013132986
-0.0029405431
0.0010340236
-0.0030275127
0.0007517689
-0.0030966253
0.0004643357
-0.0031480085
0.00016851469
-0.0031803744
-0.00013974362
-0.0031906676
-0.00046510616
-0.0031736621
-0.00081252464
-0.0031215495
-0.0011865215
-0.0030237222
-0.0015897212
-0.0028671336
-0.0020201085
-0.0026378771
-0.002466408
-0.0023247921
-0.0029013825
-0.0019256331
-0.0032741488
-0.0014551866
-0.0035049369
-0.00095271359
-0.0034878352
-0.00048444934
-0.0031060386
-0.00013717577
-0.0022595451
-0.00090497016
-0.0001239378
0.00091277939
-0.00041055367
0.0021765286
-0.00077800007
0.0029116492
-0.0011660742
0.0032342701
-0.0015382093
0.0032760497
-0.0018759429
0.0031460487
-0.0021724497
0.0029204901
-0.0024274851
0.0026465656
-0.0026441202
0.0023510059
-0.0028268544
0.002047951
-0.0029805678
0.0017442801
-0.0031099295
0.0014426603
-0.0032190386
0.0011431327
-0.0033111724
0.00084390267
-0.003388565
0.00054172832
-0.0034521551
0.00023210477
-0.0035012546
-9.0644043e-05
-0.0035330879
-0.0004332728
-0.0035421618
-0.00080345073
-0.0035194709
-0.0012092124
-0.0034517292
-0.0016574629
-0.0033210908
-0.0021507468
-0.0031062948
-0.0026812041
-0.0027866588
-0.0032210183
-0.002350329
-0.0037104786
-0.0018067569
-0.004048509
-0.0012000463
-0.0040945458
-0.00061602457
-0.0036900604
-0.00017457435
-0.0027009953
-0.0010795445
-0.00015055352
0.0010633329
-0.00049259913
0.0025185743
-0.00092156662
0.0033406166
-0.0013637651
0.0036764686
-0.0017773301
0.0036896147
-0.0021433519
0.0035120705
-0.0024568233
0.0032339616
-0.0027200947
0.002909837
-0.0029388937
0.0025698049
-0.0031201483
0.0022292056
-0.0032708529
0.0018949847
-0.0033974832
0.0015692905
-0.0035056847
0.0012513342
-0.0036000865
0.00093830446
-0.003684143
0.00062578482
-0.0037599271
0.00030788885
-0.0038277937
-2.2777392e-05
-0.0038858331
-0.00037523347
-0.0039290206
-0.00076026322
-0.0039479533
-0.0011902798
-0.0039272662
-0.0016781499
-0.0038441797
-0.0022338334
-0.0036683624
-0.0028570214
-0.0033653726
-0.0035240081
-0.0029066708
-0.0041691804
-0.0022879907
-0.0046671892
-0.0015529574
-0.004829579
-0.00081099112
-0.0044320267
-0.00023205437
-0.0032799321
-0.0013115988
-0.0001876952
0.0012510281
-0.00060230725
0.0029331864
-0.0011065325
0.0038448418
-0.0016098093
0.0041797453
-0.0020654119
0.0041452173
-0.0024556775
0.0039023361
-0.0027791547
0.0035574388
-0.0030421807
0.0031728629
-0.0032541414
0.0027817657
-0.0034250693
0.0024001335
-0.0035645059
0.0020344212
-0.0036809992
0.0016857838
-0.0037819109
0.001352246
-0.00387336
0.0010297535
-0.0039601947
0.00071261948
-0.0040459024
0.00039359649
-0.0041323435
6.3663715e-05
-0.0042192057
-0.00028837123
-0.004303005
-0.00067646398
-0.00437538
-0.0011179047
-0.0044205249
-0.0016330051
-0.0044119908
-0.0022423675
-0.0043100477
-0.0029589645
-0.0040626815
-0.0037713743
-0.0036155569
-0.004616305
-0.0029366307
-0.0053461153
-0.0020555322
-0.0057106775
-0.0011038458
-0.005383713
-0.00032355558
-0.0040602222
-0.0016351544
-0.00024135517
0.0014923833
-0.00075144045
0.0034432716
-0.0013455424
0.0044389437
-0.0019133597
0.0047475626
-0.0024055923
0.0046374499
-0.0028090558
0.0043057996
-0.0031285469
0.00387693
-0.0033762808
0.0034205968
-0.0035665109
0.0029719957
-0.0037130808
0.0025467034
-0.0038284375
0.002149778
-0.0039233321
0.0017806784
-0.0040068408
0.0014357547
-0.0040865217
0.0011094344
-0.0041685941
0.00079469189
-0.004258048
0.00048305035
-0.004358547
0.00016416269
-0.0044720406
-0.00017487761
-0.0045978077
-0.00055069687
-0.0047304687
-0.00098524377
-0.0048566002
-0.0015068737
-0.0049495217
-0.0021494461
-0.0049629514
-0.0029455347
-0.0048268142
-0.0039075115
-0.0044529294
-0.0049901899
-0.0037625078
-0.0060365368
-0.002744744
-0.0067284414
-0.0015363361
-0.0065921209
-0.00047035559
-0.0051262028
-0.0021055099
-0.00032129834
0.0018136816
-0.00095546587
0.0040774391
-0.0016501887
0.0051336665
-0.0022755926
0.0053729665
-0.0027858624
0.0051477198
-0.0031779583
0.0046978955
-0.0034668801
0.0041658518
-0.0036731416
0.0036268582
-0.0038171854
0.0031160395
-0.0039172594
0.0026467775
-0.0039888411
0.0022213596
-0.0040447198
0.001836557
-0.0040953596
0.0014863945
-0.0041493629
0.0011634377
-0.0042139297
0.00085925863
-0.0042952363
0.00056435699
-0.0043986475
0.00026757386
-0.0045284916
-4.5033491e-05
-0.0046878152
-0.00039137336
-0.0048759859
-0.000797073
-0.0050854668
-0.0012973928
-0.0052950367
-0.0019398761
-0.0054595195
-0.0027810519
-0.0054979684
-0.0038690627
-0.0052886529
-0.0051995054
-0.0046893419
-0.0066358478
-0.0036088553
-0.007808928
-0.0021405962
-0.0080603799
-0.00070108269
-0.0065657164
-0.0028065927
-0.00044336133
0.0022570429
-0.0012318671
0.0048659449
-0.0020218382
0.0059236375
-0.0026730373
0.0060241656
-0.0031562055
0.0056308879
-0.0034876276
0.0050293177
-0.0036978938
0.0043761179
-0.0038185704
0.0037475348
-0.0038773873
0.0031748565
-0.003897109
0.0026664992
-0.003895793
0.0022200437
-0.0038875151
0.0018282791
-0.0038832331
0.0014821125
-0.0038916537
0.0011718583
-0.0039200213
0.00088762627
-0.0039747966
0.00061913227
-0.0040622637
0.0003550409
-0.0041883518
8.1054502e-05
-0.0043598374
-0.00021988774
-0.0045815447
-0.0005753658
-0.0048545899
-0.0010243476
-0.0051696392
-0.0016248268
-0.0054946604
-0.0024560308
-0.0057558523
-0.0036078708
-0.0058164688
-0.0051388888
-0.0054733197
-0.006978997
-0.0045151783
-0.0087670694
-0.0029007226
-0.0096748354
-0.0010476441
-0.0084187949
-0.0038542367
-0.00063281388
0.0028898567
-0.0015928341
0.005825965
-0.0024289523
0.0067597558
-0.0030220571
0.0066172705
-0.0033841957
0.0059930266
-0.0035642888
0.0052094108
-0.003614749
0.0044265781
-0.0035803572
0.003713143
-0.0034960168
0.0030905161
-0.0033877508
0.0025582331
-0.0032744646
0.0021067575
-0.0031696581
0.0017234727
-0.0030829656
0.0013954199
-0.0030214931
0.0011103859
-0.0029909423
0.00085707545
-0.0029965422
0.00062473226
-0.0030437907
0.00040228934
-0.0031395199
0.00017678374
-0.0032910689
-6.8338672e-05
-0.0035087813
-0.00035765346
-0.0038024641
-0.00073066482
-0.0041787646
-0.0012485263
-0.0046308714
-0.002003924
-0.0051175719
-0.0031211703
-0.0055279151
-0.0047285457
-0.0056402044
-0.0068667077
-0.0051215646
-0.0092857092
-0.0036832662
-0.011113134
-0.0015284019
-0.010573659
-0.0053826386
-0.0009257165
0.0038155733
-0.0020202356
0.0069204841
-0.0027533683
0.0074928884
-0.0031071804
0.0069710826
-0.003175611
0.0060614571
-0.0030551248
0.0050889247
-0.0028238687
0.004195322
-0.0025385244
0.0034277988
-0.0022374098
0.0027894015
-0.0019453333
0.0022661566
-0.0016777866
0.0018392109
-0.0014439634
0.0014896494
-0.0012490544
0.001200511
-0.0010960053
0.00095733676
-0.00098683802
0.00074790812
-0.00092365761
0.00056155183
-0.00090949673
0.00038812847
-0.00094937229
0.00021665931
-0.0010501922
3.2481202e-05
-0.0012242476
-0.0001835981
-0.0014876585
-0.00046725391
-0.001862372
-0.0008738127
-0.0023721427
-0.0014941533
-0.0030286222
-0.0024646907
-0.0037955239
-0.003961644
-0.0045167982
-0.0061454335
-0.0048199499
-0.0089825574
-0.0041266657
-0.011806418
-0.002090813
-0.012609512
-0.0074734515
-0.001350021
0.0051655943
-0.0023758871
0.0079463502
-0.002657206
0.0077742073
-0.0024362576
0.0067501342
-0.0019400903
0.0055652898
-0.0013144731
0.0044633075
-0.0006556419
0.0035364908
-2.0369627e-05
0.0027925265
0.00056163404
0.0022073978
0.0010771099
0.0017506808
0.0015221893
0.0013941314
0.0018980593
0.0011137795
0.002208294
0.00089027627
0.0024571241
0.00070850664
0.0026483222
0.00055671005
0.0027844605
0.00042541358
0.0028662991
0.00030628984
0.0028921255
0.0001908329
0.0028560052
6.8601438e-05
0.0027479544
-7.5547259e-05
0.0025480744
-0.00026737383
0.0022240018
-0.00054974015
0.0017256911
-0.00099584264
0.00098555714
-0.0017245568
-6.081415e-05
-0.0029152726
-0.0014031267
-0.0048031209
-0.0028008676
-0.0075848167
-0.0035379828
-0.011069303
-0.0024966463
-0.013650849
-0.0099700979
-0.001793059
0.0069586533
-0.0020741227
0.0082274138
-0.0012294617
0.0069295464
5.4583125e-05
0.0054660894
0.0014300499
0.0041898231
0.0027357318
0.0031576256
0.0039030192
0.0023692034
0.0049092249
0.0017863208
0.0057580154
0.0013586073
0.0064645926
0.0010441036
0.0070473663
0.00081135771
0.007524283
0.0006368627
0.0079111982
0.00050336097
0.0082212099
0.00039849496
0.0084645032
0.0003134168
0.0086483803
0.00024153648
0.0087772143
0.00017745583
0.0088520944
0.00011595279
0.0088698117
5.0884153e-05
0.00882094
-2.6675544e-05
0.0086861893
-0.00013262317
0.0084283466
-0.00029189746
0.0079826913
-0.00055018719
0.0072434967
-0.00098536234
0.0060571024
-0.0017288783
0.0042495541
-0.0029955728
0.0017719999
-0.0051072623
-0.0008971181
-0.0084001849
-0.0021507513
-0.012397215
-0.012120849
-0.00094261373
0.007901267
0.001009353
0.0062754471
0.0039209718
0.0040179276
0.0065982836
0.0027887776
0.0088546445
0.0019334622
0.010692781
0.0013194893
0.012155411
0.00090657298
0.013306041
0.00063569039
0.014208836
0.00045581234
0.014918563
0.00033437687
0.015478784
0.00025113657
0.015922908
0.00019273925
0.016275903
0.00015036562
0.016556058
0.00011833995
0.016776475
9.299957e-05
0.016946155
7.1856452e-05
0.017070601
5.3010103e-05
0.017151863
3.4690996e-05
0.017187831
1.4915346e-05
0.017171399
-1.0243594e-05
0.017084342
-4.5565591e-05
0.016892486
-0.00010004118
0.0165329
-0.00019060111
0.015893812
-0.00034627479
0.014785785
-0.00062085076
0.012909184
-0.001118972
0.0098634338
-0.0020615122
0.005433011
-0.0039697622
0.0008433737
-0.0078075779
-0.011277476
0.007901267
0.014176714
0.018194642
0.020983419
0.022916881
0.024236371
0.025142944
0.025778634
0.026234446
0.026568823
0.02681996
0.027012699
0.027163065
0.027281405
0.027374404
0.027446261
0.027499271
0.027533962
0.027548877
0.027538634
0.027493068
0.027393027
0.027202426
0.026856151
0.0262353
0.025116328
0.023054816
0.019085054
0.011277476
)
;

boundaryField
{
    movingWall
    {
        type            calculated;
        value           uniform 0;
    }
    fixedWalls
    {
        type            calculated;
        value           uniform 0;
    }
    frontAndBack
    {
        type            empty;
        value           nonuniform List<scalar> 0();
    }
}


// ************************************************************************* //
