/*--------------------------------*- C++ -*----------------------------------*\
| =========                 |                                                 |
| \\      /  F ield         | OpenFOAM: The Open Source CFD Toolbox           |
|  \\    /   O peration     | Version:  2312                                  |
|   \\  /    A nd           | Website:  www.openfoam.com                      |
|    \\/     M anipulation  |                                                 |
\*---------------------------------------------------------------------------*/
FoamFile
{
    version     2.0;
    format      ascii;
    arch        "LSB;label=32;scalar=64";
    class       volVectorField;
    location    "0.5";
    object      U;
}
// * * * * * * * * * * * * * * * * * * * * * * * * * * * * * * * * * * * * * //

dimensions      [0 1 -1 0 0 0 0];

internalField   nonuniform List<vector> 
900
(
(4.2066867e-05 -4.1301753e-05 0)
(-8.2063179e-05 6.6257598e-05 0)
(-0.00052575264 0.00016552593 0)
(-0.0011434727 0.00021855637 0)
(-0.001848288 0.00023767911 0)
(-0.0025758904 0.00023706347 0)
(-0.0032855381 0.00022605983 0)
(-0.0039541168 0.00020973665 0)
(-0.0045681091 0.00019033459 0)
(-0.0051183318 0.00016865063 0)
(-0.0055974414 0.00014491946 0)
(-0.0059989852 0.00011923364 0)
(-0.0063171442 9.1700668e-05 0)
(-0.0065467486 6.2486135e-05 0)
(-0.0066833827 3.1818943e-05 0)
(-0.0067235131 -1.229324e-08 0)
(-0.0066646092 -3.2666329e-05 0)
(-0.0065053144 -6.5740778e-05 0)
(-0.006245565 -9.8784269e-05 0)
(-0.0058867488 -0.00013130355 0)
(-0.0054318655 -0.00016276062 0)
(-0.0048857768 -0.00019252654 0)
(-0.0042557396 -0.00021971502 0)
(-0.0035526546 -0.00024275455 0)
(-0.002793841 -0.00025853096 0)
(-0.002008405 -0.00026111986 0)
(-0.0012448296 -0.00024058352 0)
(-0.00057568001 -0.00018271167 0)
(-9.5527183e-05 -7.5752819e-05 0)
(4.2153384e-05 4.0513382e-05 0)
(-6.434927e-05 8.0952593e-05 0)
(-0.00058869255 0.00058852992 0)
(-0.0017299134 0.0010077116 0)
(-0.003212043 0.001249157 0)
(-0.0048643957 0.0013474082 0)
(-0.0065663428 0.0013507119 0)
(-0.0082324367 0.0012963333 0)
(-0.0098075066 0.0012075027 0)
(-0.011256022 0.0010965568 0)
(-0.012553093 0.00096940378 0)
(-0.013679441 0.00082888638 0)
(-0.014619049 0.00067667162 0)
(-0.015358229 0.00051412821 0)
(-0.015885353 0.00034267648 0)
(-0.016190894 0.00016391365 0)
(-0.016267583 -2.0341057e-05 0)
(-0.016110617 -0.00020802374 0)
(-0.015717992 -0.00039681168 0)
(-0.015090752 -0.0005841008 0)
(-0.014233373 -0.00076698163 0)
(-0.013154237 -0.0009421239 0)
(-0.011866413 -0.0011054178 0)
(-0.010389111 -0.0012510732 0)
(-0.0087505612 -0.0013697394 0)
(-0.0069934847 -0.0014453194 0)
(-0.0051841294 -0.0014510665 0)
(-0.0034219156 -0.001347485 0)
(-0.0018420162 -0.0010864961 0)
(-0.00062825242 -0.00063652062 0)
(-6.982679e-05 -9.3267692e-05 0)
(-0.00016612673 0.00052444332 0)
(-0.0010291595 0.0017341944 0)
(-0.002703353 0.0026528556 0)
(-0.0048008157 0.003193176 0)
(-0.0071002215 0.0034209519 0)
(-0.0094541309 0.0034294724 0)
(-0.011754496 0.0032963841 0)
(-0.013928161 0.0030734859 0)
(-0.015926092 0.0027906383 0)
(-0.017713169 0.0024637296 0)
(-0.019262188 0.0021013454 0)
(-0.020550902 0.0017088701 0)
(-0.021560691 0.0012905851 0)
(-0.022276078 0.00085061388 0)
(-0.022684657 0.0003933212 0)
(-0.02277721 -7.6503221e-05 0)
(-0.022547946 -0.00055353231 0)
(-0.021994883 -0.0010318476 0)
(-0.021120172 -0.0015048497 0)
(-0.019930643 -0.0019651043 0)
(-0.018438505 -0.0024039568 0)
(-0.016662454 -0.0028105724 0)
(-0.014629646 -0.0031698094 0)
(-0.0123793 -0.0034581944 0)
(-0.0099692079 -0.0036377275 0)
(-0.0074859387 -0.0036491993 0)
(-0.0050543145 -0.0034104826 0)
(-0.0028391333 -0.0028290396 0)
(-0.0010774787 -0.0018459351 0)
(-0.00017298393 -0.00056031821 0)
(-0.00022781357 0.0011616557 0)
(-0.0013266961 0.003269205 0)
(-0.0033888539 0.0047799186 0)
(-0.0059240017 0.0056583468 0)
(-0.0086712356 0.0060246959 0)
(-0.011466636 0.0060277834 0)
(-0.014190147 0.0057910064 0)
(-0.016759371 0.0053980419 0)
(-0.019118159 0.0048986609 0)
(-0.021225715 0.0043205636 0)
(-0.023050269 0.0036795102 0)
(-0.024565922 0.0029857433 0)
(-0.025751175 0.0022473978 0)
(-0.026588324 0.0014721125 0)
(-0.02706331 0.00066776158 0)
(-0.027165782 -0.00015718015 0)
(-0.026889336 -0.00099341355 0)
(-0.026231879 -0.0018306421 0)
(-0.025196074 -0.0026573945 0)
(-0.023789974 -0.0034606855 0)
(-0.022027884 -0.0042252973 0)
(-0.019931677 -0.0049321375 0)
(-0.017533019 -0.0055547917 0)
(-0.014877278 -0.0060532605 0)
(-0.012030478 -0.0063646546 0)
(-0.0090902343 -0.0063934626 0)
(-0.0061956985 -0.006009243 0)
(-0.0035306979 -0.0050646045 0)
(-0.0013741616 -0.0034507249 0)
(-0.00023324072 -0.0012217696 0)
(-0.0002622349 0.0019252712 0)
(-0.0015195793 0.0050707681 0)
(-0.0038618139 0.0072381046 0)
(-0.0067163187 0.0084756451 0)
(-0.0097884593 0.0089791459 0)
(-0.012900417 0.0089635714 0)
(-0.015923792 0.008602693 0)
(-0.018770804 0.0080140578 0)
(-0.02138155 0.0072683826 0)
(-0.023712282 0.0064059166 0)
(-0.025728816 0.005450225 0)
(-0.027403278 0.0044169642 0)
(-0.028712562 0.0033185992 0)
(-0.029637651 0.0021666844 0)
(-0.030163393 0.00097294108 0)
(-0.030278532 -0.00025017075 0)
(-0.029975913 -0.0014890776 0)
(-0.029252838 -0.002728775 0)
(-0.028111635 -0.0039524939 0)
(-0.026560388 -0.0051411494 0)
(-0.024613951 -0.0062722556 0)
(-0.022295466 -0.0073175769 0)
(-0.019638814 -0.0082383442 0)
(-0.016692794 -0.008976713 0)
(-0.013528551 -0.0094431825 0)
(-0.010251424 -0.0095032517 0)
(-0.0070120856 -0.0089730464 0)
(-0.004011803 -0.0076397344 0)
(-0.0015662167 -0.0053244047 0)
(-0.00026597762 -0.0020072105 0)
(-0.00028354333 0.0027717408 0)
(-0.0016570256 0.0070685529 0)
(-0.0042182006 0.0099517 0)
(-0.0073291596 0.011569619 0)
(-0.010665146 0.012209968 0)
(-0.014034327 0.012164114 0)
(-0.017300373 0.011661521 0)
(-0.020371165 0.010856085 0)
(-0.023184334 0.0098405813 0)
(-0.025694495 0.0086683601 0)
(-0.027866223 0.0073711392 0)
(-0.029670639 0.005970241 0)
(-0.031083754 0.0044826384 0)
(-0.032085699 0.0029239084 0)
(-0.032660422 0.0013096671 0)
(-0.032795663 -0.00034363238 0)
(-0.032483133 -0.0020181325 0)
(-0.031718875 -0.0036940615 0)
(-0.03050396 -0.0053491878 0)
(-0.028845341 -0.0069580108 0)
(-0.026757085 -0.0084902643 0)
(-0.024262172 -0.0099078159 0)
(-0.021395286 -0.011158485 0)
(-0.018207456 -0.012165092 0)
(-0.014774196 -0.0128093 0)
(-0.011208571 -0.012914016 0)
(-0.0076738271 -0.012235849 0)
(-0.0043903836 -0.010486345 0)
(-0.0017084458 -0.0074015769 0)
(-0.00028667491 -0.0028750561 0)
(-0.00030118427 0.0036813704 0)
(-0.0017770995 0.0092282274 0)
(-0.0045372163 0.012884459 0)
(-0.0078864558 0.014906406 0)
(-0.011471143 0.015685961 0)
(-0.015084369 0.015600247 0)
(-0.018581026 0.014940121 0)
(-0.021864409 0.013898863 0)
(-0.024869913 0.012592762 0)
(-0.02755102 0.011088942 0)
(-0.029871664 0.0094275797 0)
(-0.031802516 0.0076357774 0)
(-0.033319137 0.0057350025 0)
(-0.034401058 0.0037447366 0)
(-0.035031358 0.0016842893 0)
(-0.03519655 -0.00042614181 0)
(-0.034886729 -0.0025646663 0)
(-0.034095947 -0.0047069274 0)
(-0.032823038 -0.0068252793 0)
(-0.031072665 -0.0088876436 0)
(-0.028856852 -0.010855519 0)
(-0.026197198 -0.012680034 0)
(-0.023128231 -0.014294243 0)
(-0.019702777 -0.015599562 0)
(-0.016001144 -0.016445688 0)
(-0.012145675 -0.016608256 0)
(-0.0083148935 -0.015777539 0)
(-0.0047515031 -0.01358016 0)
(-0.0018411848 -0.0096565764 0)
(-0.00030513703 -0.0038095275 0)
(-0.00032052991 0.0046525942 0)
(-0.0019044462 0.01154658 0)
(-0.0048733071 0.016034959 0)
(-0.0084743478 0.018487497 0)
(-0.012323678 0.019410747 0)
(-0.016197668 0.019276511 0)
(-0.019941114 0.0184431 0)
(-0.023452019 0.017146739 0)
(-0.026663377 0.015529116 0)
(-0.029527732 0.013672048 0)
(-0.032008759 0.011624557 0)
(-0.034077107 0.0094196111 0)
(-0.035708257 0.0070830399 0)
(-0.036881368 0.0046379303 0)
(-0.03757867 0.0021068607 0)
(-0.037785223 -0.00048672811 0)
(-0.037488987 -0.0031174259 0)
(-0.036681226 -0.0057567233 0)
(-0.035357465 -0.0083718241 0)
(-0.033518788 -0.010924046 0)
(-0.031173786 -0.013366196 0)
(-0.028341379 -0.015637622 0)
(-0.025054983 -0.017654782 0)
(-0.021368971 -0.019294812 0)
(-0.017369281 -0.020371203 0)
(-0.013189772 -0.020606396 0)
(-0.0090278481 -0.019616636 0)
(-0.0051527991 -0.016934635 0)
(-0.0019898754 -0.012096807 0)
(-0.00032668157 -0.0048135263 0)
(-0.00034426148 0.0056943941 0)
(-0.0020534543 0.014041651 0)
(-0.0052605029 0.019426907 0)
(-0.0091478694 0.02233991 0)
(-0.013297843 0.023412421 0)
(-0.017467797 0.02322029 0)
(-0.021490884 0.022195995 0)
(-0.025259022 0.020622889 0)
(-0.028702625 0.018670414 0)
(-0.031773517 0.016436292 0)
(-0.03443556 0.013978927 0)
(-0.036659909 0.01133725 0)
(-0.038422449 0.0085412329 0)
(-0.03970231 0.0056171009 0)
(-0.040480996 0.0025900407 0)
(-0.040741949 -0.00051404751 0)
(-0.040470478 -0.0036670607 0)
(-0.03965417 -0.0068370794 0)
(-0.038283995 -0.0099866998 0)
(-0.036355893 -0.013070795 0)
(-0.033873276 -0.016033053 0)
(-0.030850667 -0.018799771 0)
(-0.027319033 -0.021268406 0)
(-0.023333773 -0.023287962 0)
(-0.018987261 -0.02463011 0)
(-0.014427458 -0.024956604 0)
(-0.0098750921 -0.023800568 0)
(-0.0056318058 -0.020591117 0)
(-0.0021696954 -0.014752453 0)
(-0.00035389652 -0.0059006576 0)
(-0.00037371095 0.0068213821 0)
(-0.002232687 0.016744519 0)
(-0.0057204472 0.023100077 0)
(-0.0099428302 0.026506885 0)
(-0.014442668 0.027734076 0)
(-0.018955357 0.027472247 0)
(-0.023300654 0.026235813 0)
(-0.027363673 0.024360216 0)
(-0.031072259 0.02204554 0)
(-0.034377986 0.019406956 0)
(-0.037245611 0.016512949 0)
(-0.039647592 0.013408533 0)
(-0.041560963 0.010127514 0)
(-0.042965407 0.0066985882 0)
(-0.043842013 0.0031486167 0)
(-0.044172564 -0.00049517288 0)
(-0.043939223 -0.0042032347 0)
(-0.043124903 -0.0079413923 0)
(-0.041714519 -0.011668587 0)
(-0.039696876 -0.015333728 0)
(-0.03706785 -0.018871085 0)
(-0.033835119 -0.022192458 0)
(-0.030025075 -0.025173287 0)
(-0.025692946 -0.027629413 0)
(-0.020938008 -0.029283346 0)
(-0.015925145 -0.029726512 0)
(-0.010903894 -0.028397653 0)
(-0.0062159521 -0.024610882 0)
(-0.0023908436 -0.017668962 0)
(-0.00038815387 -0.0070905672 0)
(-0.00040976773 0.0080516372 0)
(-0.002448428 0.01969511 0)
(-0.0062694838 0.02710545 0)
(-0.010886444 0.031042855 0)
(-0.01579517 0.032428696 0)
(-0.020705333 0.032081143 0)
(-0.025421351 0.030605835 0)
(-0.029820974 0.028396275 0)
(-0.033829833 0.025686708 0)
(-0.03740012 0.022611672 0)
(-0.040498636 0.019250601 0)
(-0.043100356 0.015654729 0)
(-0.04518461 0.011861259 0)
(-0.046732558 0.0079004629 0)
(-0.047725469 0.0037995946 0)
(-0.048143645 -0.0004143694 0)
(-0.047965656 -0.0047122843 0)
(-0.047168627 -0.0090594029 0)
(-0.045729629 -0.013412573 0)
(-0.043627761 -0.017715762 0)
(-0.04084815 -0.021893861 0)
(-0.037388068 -0.025842687 0)
(-0.033265962 -0.029412012 0)
(-0.028534534 -0.032378075 0)
(-0.023299706 -0.0344046 0)
(-0.017746261 -0.035000071 0)
(-0.012159355 -0.033494368 0)
(-0.0069309859 -0.029072388 0)
(-0.0026625416 -0.020904343 0)
(-0.00043055951 -0.0084073485 0)
(-0.00045337762 0.0094062424 0)
(-0.0027069865 0.022941028 0)
(-0.0069236615 0.031503666 0)
(-0.012004986 0.036011643 0)
(-0.017390372 0.037557082 0)
(-0.022759194 0.037101472 0)
(-0.027898433 0.035353008 0)
(-0.032678182 0.032770518 0)
(-0.037022697 0.029626712 0)
(-0.04088625 0.02607783 0)
(-0.044239417 0.022215303 0)
(-0.047061498 0.018096709 0)
(-0.049335793 0.013762053 0)
(-0.051046337 0.0092419733 0)
(-0.05217557 0.0045623891 0)
(-0.052702859 -0.00025214985 0)
(-0.052602834 -0.0051752688 0)
(-0.051845605 -0.010174311 0)
(-0.050398361 -0.015206449 0)
(-0.048227227 -0.02021258 0)
(-0.045302245 -0.025108926 0)
(-0.041605162 -0.029774061 0)
(-0.037141248 -0.034027877 0)
(-0.031956464 -0.037598876 0)
(-0.026161805 -0.040079349 0)
(-0.019964804 -0.040878017 0)
(-0.013694683 -0.03919671 0)
(-0.0078074197 -0.034072745 0)
(-0.0029957497 -0.024530095 0)
(-0.00048244791 -0.0098798073 0)
(-0.00050582378 0.010909799 0)
(-0.0030162165 0.026538351 0)
(-0.0077022313 0.036365656 0)
(-0.013329167 0.041486638 0)
(-0.019268175 0.043187423 0)
(-0.025162884 0.042592422 0)
(-0.030780666 0.040526378 0)
(-0.035984117 0.037522373 0)
(-0.040697667 0.033896815 0)
(-0.044879918 0.029830465 0)
(-0.048507762 0.025427968 0)
(-0.051567371 0.020753325 0)
(-0.054048388 0.015848516 0)
(-0.055939753 0.010742948 0)
(-0.057226646 0.0054588299 0)
(-0.057888321 1.5451128e-05 0)
(-0.05789554 -0.0055661505 0)
(-0.057210393 -0.01125987 0)
(-0.055787727 -0.01702684 0)
(-0.053576713 -0.022807985 0)
(-0.050526603 -0.028512756 0)
(-0.046596426 -0.034001937 0)
(-0.041770326 -0.039061023 0)
(-0.036080375 -0.043360704 0)
(-0.029638669 -0.046405187 0)
(-0.02267759 -0.047480649 0)
(-0.01558072 -0.045634739 0)
(-0.0088863841 -0.039732677 0)
(-0.0034053928 -0.02863501 0)
(-0.00054567109 -0.011542906 0)
(-0.00056895321 0.012591622 0)
(-0.0033868095 0.030553928 0)
(-0.0086306174 0.041774889 0)
(-0.014898546 0.047552294 0)
(-0.021478722 0.049395774 0)
(-0.027972625 0.048617347 0)
(-0.034125994 0.046175756 0)
(-0.039794844 0.042689326 0)
(-0.04490636 0.038524514 0)
(-0.049426806 0.033889931 0)
(-0.053342965 0.028904791 0)
(-0.056651383 0.023639485 0)
(-0.059351295 0.018136861 0)
(-0.061439468 0.012423069 0)
(-0.06290604 0.0065138388 0)
(-0.06373092 0.00041958124 0)
(-0.063882273 -0.0058491351 0)
(-0.063314091 -0.012277021 0)
(-0.061965633 -0.018834607 0)
(-0.059764489 -0.025468103 0)
(-0.056631975 -0.032084148 0)
(-0.052494542 -0.038526771 0)
(-0.047303421 -0.044542874 0)
(-0.041065045 -0.0497333 0)
(-0.033884377 -0.053492337 0)
(-0.026018581 -0.054952363 0)
(-0.01791761 -0.052970298 0)
(-0.010226933 -0.046205277 0)
(-0.003913076 -0.033332063 0)
(-0.00062290248 -0.01344029 0)
(-0.00064547307 0.014487643 0)
(-0.003833853 0.035069157 0)
(-0.0097437985 0.047831113 0)
(-0.016766264 0.054306663 0)
(-0.02408771 0.05626699 0)
(-0.031260176 0.055243218 0)
(-0.038006276 0.052350007 0)
(-0.044177643 0.04830445 0)
(-0.049708294 0.043530658 0)
(-0.054576948 0.0382689 0)
(-0.058785165 0.032654359 0)
(-0.062344526 0.026763562 0)
(-0.065268106 0.020638726 0)
(-0.067564169 0.014300217 0)
(-0.069230976 0.0077538559 0)
(-0.070252275 0.00099660347 0)
(-0.070594366 -0.0059776976 0)
(-0.070202543 -0.013170497 0)
(-0.068999217 -0.020569346 0)
(-0.066885433 -0.028133831 0)
(-0.063745792 -0.035774972 0)
(-0.059461088 -0.043324124 0)
(-0.053932582 -0.050487064 0)
(-0.047122241 -0.056781289 0)
(-0.039112206 -0.061462994 0)
(-0.030179262 -0.063467504 0)
(-0.020852397 -0.061408554 0)
(-0.011917555 -0.053689956 0)
(-0.0045515296 -0.038769742 0)
(-0.00071817381 -0.015628376 0)
(-0.00073944456 0.016643299 0)
(-0.0043791555 0.040185667 0)
(-0.011090994 0.054655767 0)
(-0.019005156 0.061864816 0)
(-0.027182776 0.063895726 0)
(-0.035118581 0.062539518 0)
(-0.04251189 0.059094429 0)
(-0.049214229 0.054392858 0)
(-0.055172701 0.048925459 0)
(-0.060385218 0.042968307 0)
(-0.064874641 0.036673781 0)
(-0.068673604 0.030123887 0)
(-0.07181444 0.023358196 0)
(-0.07432173 0.016388148 0)
(-0.076206117 0.0092053615 0)
(-0.077458798 0.0017879453 0)
(-0.078046888 -0.0058930373 0)
(-0.077908352 -0.013864991 0)
(-0.076947932 -0.022142715 0)
(-0.075035794 -0.030710921 0)
(-0.072010273 -0.039497097 0)
(-0.067690131 -0.048329394 0)
(-0.061902822 -0.056874187 0)
(-0.054536502 -0.064552465 0)
(-0.045622049 -0.070447148 0)
(-0.035439873 -0.073236674 0)
(-0.024607837 -0.071214544 0)
(-0.01409614 -0.062454406 0)
(-0.0053728427 -0.045150776 0)
(-0.00083803351 -0.018183306 0)
(-0.00085716807 0.01911802 0)
(-0.0050549858 0.046033742 0)
(-0.012742637 0.062399487 0)
(-0.021716216 0.070363018 0)
(-0.030881615 0.07238699 0)
(-0.039668754 0.070575889 0)
(-0.047756192 0.066446499 0)
(-0.055002973 0.060966434 0)
(-0.061378635 0.054702881 0)
(-0.066909553 0.047971813 0)
(-0.071648366 0.040943492 0)
(-0.07565627 0.033704049 0)
(-0.078991481 0.026287715 0)
(-0.081700819 0.018693281 0)
(-0.083812731 0.0108934 0)
(-0.085330812 0.0028413073 0)
(-0.086227582 -0.0055224656 0)
(-0.086437366 -0.014261462 0)
(-0.085848821 -0.023431006 0)
(-0.084299109 -0.033057611 0)
(-0.081571581 -0.043104427 0)
(-0.077404254 -0.053414836 0)
(-0.071519237 -0.063626465 0)
(-0.063686765 -0.073055339 0)
(-0.053837005 -0.080570196 0)
(-0.042216347 -0.084510936 0)
(-0.029529648 -0.082735808 0)
(-0.016985194 -0.072869188 0)
(-0.0064642618 -0.052763913 0)
(-0.00099420465 -0.021213548 0)
(-0.0010088138 0.021992421 0)
(-0.0059102121 0.052784815 0)
(-0.014800788 0.071252166 0)
(-0.025040074 0.079963205 0)
(-0.035341701 0.081855213 0)
(-0.045065899 0.079417349 0)
(-0.053878147 0.074428876 0)
(-0.061657853 0.068015915 0)
(-0.06841065 0.060832627 0)
(-0.074203821 0.053238179 0)
(-0.079130472 0.045420211 0)
(-0.083289367 0.037466469 0)
(-0.086772281 0.029402237 0)
(-0.089655116 0.021209328 0)
(-0.091990635 0.012836364 0)
(-0.093801394 0.0042054784 0)
(-0.095072155 -0.0047815824 0)
(-0.095740585 -0.01423569 0)
(-0.095685151 -0.024268653 0)
(-0.094712825 -0.034970917 0)
(-0.092547508 -0.046369889 0)
(-0.088828732 -0.058356481 0)
(-0.083135285 -0.070566929 0)
(-0.075056928 -0.082217723 0)
(-0.06434125 -0.091922986 0)
(-0.0511224 -0.097576925 0)
(-0.036158464 -0.096430147 0)
(-0.020951276 -0.085461086 0)
(-0.0079778511 -0.062038341 0)
(-0.0012095256 -0.024883831 0)
(-0.0012114672 0.025380112 0)
(-0.0070203385 0.060669855 0)
(-0.017414107 0.081455633 0)
(-0.029171101 0.090856272 0)
(-0.04076933 0.092419663 0)
(-0.051501739 0.089114793 0)
(-0.061037576 0.083037625 0)
(-0.069297356 0.075498613 0)
(-0.076342257 0.067248386 0)
(-0.082296732 0.058690471 0)
(-0.087307318 0.050027158 0)
(-0.09152058 0.041343449 0)
(-0.09507015 0.032650822 0)
(-0.098068272 0.023909203 0)
(-0.10059918 0.015038175 0)
(-0.1027123 0.0059231053 0)
(-0.10441392 -0.0035805294 0)
(-0.1056563 -0.013641873 0)
(-0.10631992 -0.024446462 0)
(-0.10619309 -0.036175581 0)
(-0.10494591 -0.048960381 0)
(-0.10211004 -0.062791063 0)
(-0.09708319 -0.077358041 0)
(-0.089194504 -0.091814624 0)
(-0.077882925 -0.10449725 0)
(-0.063022628 -0.11272581 0)
(-0.045318729 -0.11288944 0)
(-0.026593799 -0.10098941 0)
(-0.010182109 -0.073634645 0)
(-0.0015302805 -0.029461062 0)
(-0.0014948341 0.029447429 0)
(-0.00850355 0.070005643 0)
(-0.020797508 0.093317376 0)
(-0.034370506 0.10326021 0)
(-0.047420286 0.10419144 0)
(-0.05919121 0.09968626 0)
(-0.069388656 0.092221745 0)
(-0.078006467 0.083318565 0)
(-0.085188238 0.073829687 0)
(-0.091136084 0.064199885 0)
(-0.096064936 0.054639612 0)
(-0.10017993 0.045223947 0)
(-0.10366454 0.035943962 0)
(-0.10667399 0.026732184 0)
(-0.10933069 0.017474698 0)
(-0.11171916 0.0080160885 0)
(-0.1138783 -0.0018393854 0)
(-0.1157906 -0.012327453 0)
(-0.11735833 -0.023722813 0)
(-0.11837529 -0.036326039 0)
(-0.11848143 -0.050421011 0)
(-0.11711237 -0.066172311 0)
(-0.11346367 -0.083422197 0)
(-0.10652004 -0.10135532 0)
(-0.095239957 -0.11806102 0)
(-0.078987572 -0.13016061 0)
(-0.058167119 -0.13282836 0)
(-0.034843465 -0.12053434 0)
(-0.013539698 -0.088584266 0)
(-0.002049354 -0.03539837 0)
(-0.0019118839 0.03444654 0)
(-0.010545309 0.081229836 0)
(-0.025253126 0.10721938 0)
(-0.040966507 0.11740365 0)
(-0.055571944 0.11724208 0)
(-0.06831642 0.11107989 0)
(-0.078998701 0.10184629 0)
(-0.087734036 0.091292651 0)
(-0.094784222 0.080371993 0)
(-0.10045366 0.069559719 0)
(-0.1050417 0.059062045 0)
(-0.10882197 0.048932785 0)
(-0.1120338 0.039133561 0)
(-0.11487952 0.029563239 0)
(-0.11752392 0.020070929 0)
(-0.12009294 0.010459245 0)
(-0.1226687 0.00048086855 0)
(-0.12528089 -0.010169014 0)
(-0.1278809 -0.021862214 0)
(-0.13030549 -0.035041854 0)
(-0.13221297 -0.050195609 0)
(-0.13299246 -0.06775759 0)
(-0.13166225 -0.087871349 0)
(-0.12681451 -0.10993956 0)
(-0.11674232 -0.13195179 0)
(-0.099939108 -0.14978325 0)
(-0.076030809 -0.1569613 0)
(-0.046981151 -0.14553965 0)
(-0.018796147 -0.10846549 0)
(-0.0029449119 -0.043474131 0)
(-0.0025585765 0.040770707 0)
(-0.013433705 0.094940973 0)
(-0.031180202 0.12360549 0)
(-0.049311531 0.13347365 0)
(-0.065421187 0.13153343 0)
(-0.078869727 0.12310101 0)
(-0.089644279 0.1116244 0)
(-0.098050115 0.099090677 0)
(-0.10451262 0.08653531 0)
(-0.10946598 0.074441636 0)
(-0.11330891 0.062990484 0)
(-0.11639003 0.052197168 0)
(-0.11900579 0.041981395 0)
(-0.12140425 0.032200952 0)
(-0.12379087 0.022665565 0)
(-0.12633343 0.013138101 0)
(-0.12916279 0.0033253626 0)
(-0.13236719 -0.007139294 0)
(-0.13597662 -0.018718269 0)
(-0.13991564 -0.03200516 0)
(-0.14393248 -0.04772839 0)
(-0.14746808 -0.066688289 0)
(-0.14947039 -0.089521291 0)
(-0.14819794 -0.11614879 0)
(-0.14118109 -0.14480614 0)
(-0.1256517 -0.170796 0)
(-0.09970982 -0.18562064 0)
(-0.064363949 -0.17765002 0)
(-0.027021231 -0.13553647 0)
(-0.0045382482 -0.054996251 0)
(-0.0036104021 0.049046133 0)
(-0.017605556 0.11192605 0)
(-0.039041529 0.1429073 0)
(-0.059630497 0.15148406 0)
(-0.076815994 0.14677005 0)
(-0.090285068 0.13527134 0)
(-0.10036127 0.12099298 0)
(-0.10763247 0.10612994 0)
(-0.11274085 0.09175672 0)
(-0.11627684 0.07832368 0)
(-0.11874757 0.065952849 0)
(-0.12057488 0.054595906 0)
(-0.12210414 0.044113617 0)
(-0.12361766 0.034313406 0)
(-0.12534926 0.024963693 0)
(-0.12749777 0.015792782 0)
(-0.1302352 0.006474178 0)
(-0.1337066 -0.0034007762 0)
(-0.13803663 -0.014363533 0)
(-0.14327501 -0.027135831 0)
(-0.14933469 -0.042686475 0)
(-0.15584421 -0.062241119 0)
(-0.16188789 -0.087112939 0)
(-0.16563921 -0.11812458 0)
(-0.16403483 -0.15434933 0)
(-0.15287415 -0.19111507 0)
(-0.12787731 -0.21791717 0)
(-0.087530093 -0.2180198 0)
(-0.039485742 -0.17260837 0)
(-0.0073757354 -0.072076429 0)
(-0.0053899379 0.060284046 0)
(-0.023696211 0.13312679 0)
(-0.049211649 0.16532134 0)
(-0.071626991 0.17097967 0)
(-0.088651729 0.16210571 0)
(-0.10067106 0.14656929 0)
(-0.10855851 0.12889586 0)
(-0.11329822 0.11140065 0)
(-0.11580113 0.095113193 0)
(-0.11682799 0.080384065 0)
(-0.11698668 0.067227085 0)
(-0.11675261 0.055495604 0)
(-0.11649439 0.044969189 0)
(-0.11650053 0.035393366 0)
(-0.11700485 0.026493169 0)
(-0.11820935 0.017969593 0)
(-0.12030068 0.0094810937 0)
(-0.12346003 0.00060457696 0)
(-0.12788594 -0.0092279281 0)
(-0.13376293 -0.02080295 0)
(-0.14121138 -0.035272054 0)
(-0.150172 -0.05425613 0)
(-0.16013134 -0.07982253 0)
(-0.16963619 -0.11402369 0)
(-0.17564025 -0.15751784 0)
(-0.17297452 -0.20681938 0)
(-0.15458693 -0.25039744 0)
(-0.11439616 -0.26568012 0)
(-0.057168074 -0.2221639 0)
(-0.012337573 -0.097855641 0)
(-0.0084811065 0.076119768 0)
(-0.032551911 0.15942638 0)
(-0.061531733 0.19027738 0)
(-0.08358449 0.19044456 0)
(-0.097644485 0.17561568 0)
(-0.10537548 0.15500043 0)
(-0.1084673 0.13345374 0)
(-0.10840914 0.11322428 0)
(-0.10640114 0.095152841 0)
(-0.10334717 0.079389291 0)
(-0.099907075 0.06577162 0)
(-0.096553871 0.054011339 0)
(-0.093623343 0.043781301 0)
(-0.091357252 0.034753304 0)
(-0.08994012 0.026607794 0)
(-0.089529684 0.019026132 0)
(-0.090283447 0.011668085 0)
(-0.092380906 0.0041270671 0)
(-0.096029409 -0.0041443932 0)
(-0.1015073 -0.013929263 0)
(-0.10912757 -0.026441553 0)
(-0.11918658 -0.043540191 0)
(-0.13178074 -0.06790466 0)
(-0.14635716 -0.10285666 0)
(-0.16089383 -0.15121095 0)
(-0.17066296 -0.21220906 0)
(-0.16684606 -0.27575111 0)
(-0.13753478 -0.31496749 0)
(-0.079354591 -0.28399927 0)
(-0.020640736 -0.13602333 0)
(-0.013834281 0.09915008 0)
(-0.044965947 0.19093454 0)
(-0.074089323 0.21532535 0)
(-0.090409419 0.20627879 0)
(-0.096003982 0.18351514 0)
(-0.094553959 0.15705746 0)
(-0.088774746 0.13163277 0)
(-0.08067145 0.10908555 0)
(-0.071641121 0.08984463 0)
(-0.062597663 0.073722618 0)
(-0.054117059 0.0603023 0)
(-0.046548402 0.049110953 0)
(-0.040091906 0.039696214 0)
(-0.034858167 0.031652726 0)
(-0.030913257 0.024622132 0)
(-0.028312569 0.018277566 0)
(-0.027128918 0.012295999 0)
(-0.027477419 0.0063155413 0)
(-0.029527473 -0.00013556266 0)
(-0.033567294 -0.0077740227 0)
(-0.040017582 -0.017718966 0)
(-0.049465492 -0.031806413 0)
(-0.06264401 -0.052930813 0)
(-0.080206583 -0.085231348 0)
(-0.10209762 -0.13356535 0)
(-0.12604449 -0.20105059 0)
(-0.14439477 -0.28270745 0)
(-0.14122026 -0.3529463 0)
(-0.10030791 -0.35155237 0)
(-0.033010314 -0.18973096 0)
(-0.022408388 0.13362951 0)
(-0.060025489 0.22479374 0)
(-0.079654738 0.23369165 0)
(-0.079269008 0.21110284 0)
(-0.067143071 0.17921524 0)
(-0.049406261 0.14734826 0)
(-0.029572241 0.11927115 0)
(-0.0098372098 0.095902896 0)
(0.008580931 0.076969612 0)
(0.025101763 0.061811819 0)
(0.039514856 0.049709813 0)
(0.051806818 0.040001526 0)
(0.062065686 0.032124237 0)
(0.070418975 0.025618924 0)
(0.076993167 0.020113584 0)
(0.081887825 0.015296723 0)
(0.085156931 0.010884629 0)
(0.086788968 0.0065804185 0)
(0.086678544 0.0020132275 0)
(0.084600735 -0.0033791199 0)
(0.080122029 -0.010502255 0)
(0.072481188 -0.020891548 0)
(0.060464201 -0.037120505 0)
(0.042314127 -0.063249504 0)
(0.015885951 -0.10503306 0)
(-0.02043882 -0.16905651 0)
(-0.063820325 -0.25824196 0)
(-0.10061426 -0.35805626 0)
(-0.10469353 -0.40756094 0)
(-0.046982106 -0.26375151 0)
(-0.032121492 0.18697095 0)
(-0.067891761 0.24986092 0)
(-0.054819903 0.22903629 0)
(-0.019373923 0.1910492 0)
(0.022254571 0.1523915 0)
(0.063174504 0.11874215 0)
(0.10064311 0.091737284 0)
(0.13334945 0.070871051 0)
(0.16111438 0.054971737 0)
(0.18432107 0.042909719 0)
(0.20352592 0.033741331 0)
(0.21929528 0.026709115 0)
(0.2321446 0.021228431 0)
(0.24251127 0.016861782 0)
(0.25074469 0.013282837 0)
(0.25710652 0.010239738 0)
(0.2617723 0.0075202713 0)
(0.26482644 0.0049152547 0)
(0.26624162 0.0021732376 0)
(0.26584593 -0.0010666552 0)
(0.26323749 -0.0053989526 0)
(0.25761102 -0.011863099 0)
(0.2475114 -0.022258585 0)
(0.23047655 -0.039632831 0)
(0.20262921 -0.068937817 0)
(0.15878469 -0.11761988 0)
(0.095213637 -0.19477484 0)
(0.014722695 -0.3045807 0)
(-0.065093429 -0.41603544 0)
(-0.050992469 -0.35601262 0)
(-0.016193924 0.25171422 0)
(-0.018244631 0.23945164 0)
(0.070511224 0.17600234 0)
(0.15982727 0.12983315 0)
(0.23470107 0.094442802 0)
(0.29586183 0.067505082 0)
(0.3450764 0.048242258 0)
(0.38392442 0.034901193 0)
(0.41432597 0.025649097 0)
(0.4381564 0.019169639 0)
(0.45692676 0.014582416 0)
(0.47178147 0.011277859 0)
(0.48358076 0.0088340478 0)
(0.4929625 0.0069661683 0)
(0.5003887 0.0054823205 0)
(0.50618413 0.0042476741 0)
(0.51056265 0.003157168 0)
(0.51363753 0.0021122586 0)
(0.51541189 0.00099731287 0)
(0.5157607 -0.00034890071 0)
(0.51433153 -0.0022052632 0)
(0.51038601 -0.0050629177 0)
(0.50255309 -0.0097690371 0)
(0.48835719 -0.017832159 0)
(0.46346771 -0.031986283 0)
(0.42082585 -0.057319411 0)
(0.35088962 -0.10349184 0)
(0.24008941 -0.18755395 0)
(0.072290254 -0.32198695 0)
(0.0062465759 -0.38782418 0)
(0.23739926 0.14725235 0)
(0.33268849 0.13183833 0)
(0.48007662 0.082462813 0)
(0.59347249 0.050866844 0)
(0.66424223 0.031822126 0)
(0.71059042 0.019692873 0)
(0.74281588 0.012138796 0)
(0.76538052 0.0076050163 0)
(0.78129019 0.0049032524 0)
(0.79279233 0.0032766634 0)
(0.80134822 0.0022840182 0)
(0.80786194 0.0016635458 0)
(0.81291266 0.0012581332 0)
(0.81687916 0.00097575287 0)
(0.82000712 0.00076331091 0)
(0.82245311 0.00058901459 0)
(0.82431099 0.00043112578 0)
(0.8256226 0.00027035212 0)
(0.82637524 8.4259738e-05 0)
(0.82647563 -0.0001565258 0)
(0.82570183 -0.00052103789 0)
(0.82363645 -0.00112213 0)
(0.81949877 -0.0021442393 0)
(0.81185146 -0.0039247853 0)
(0.79807336 -0.0071146789 0)
(0.77332991 -0.013086734 0)
(0.72842796 -0.025144301 0)
(0.6399313 -0.05236664 0)
(0.46265806 -0.11463839 0)
(0.34315654 -0.18017693 0)
)
;

boundaryField
{
    movingWall
    {
        type            fixedValue;
        value           uniform (1 0 0);
    }
    fixedWalls
    {
        type            noSlip;
    }
    frontAndBack
    {
        type            empty;
    }
}


// ************************************************************************* //
