# vtk DataFile Version 5.1
vtk output
ASCII
DATASET UNSTRUCTURED_GRID
FIELD FieldData 1
TimeValue 1 1 float
0.5 
POINTS 1922 float
0 0 0 0.0333333 0 0 0.0666667 0 0 
0.1 0 0 0.133333 0 0 0.166667 0 0 
0.2 0 0 0.233333 0 0 0.266667 0 0 
0.3 0 0 0.333333 0 0 0.366667 0 0 
0.4 0 0 0.433333 0 0 0.466667 0 0 
0.5 0 0 0.533333 0 0 0.566667 0 0 
0.6 0 0 0.633333 0 0 0.666667 0 0 
0.7 0 0 0.733333 0 0 0.766667 0 0 
0.8 0 0 0.833333 0 0 0.866667 0 0 
0.9 0 0 0.933333 0 0 0.966667 0 0 
1 0 0 0 0.0333333 0 0.0333333 0.0333333 0 
0.0666667 0.0333333 0 0.1 0.0333333 0 0.133333 0.0333333 0 
0.166667 0.0333333 0 0.2 0.0333333 0 0.233333 0.0333333 0 
0.266667 0.0333333 0 0.3 0.0333333 0 0.333333 0.0333333 0 
0.366667 0.0333333 0 0.4 0.0333333 0 0.433333 0.0333333 0 
0.466667 0.0333333 0 0.5 0.0333333 0 0.533333 0.0333333 0 
0.566667 0.0333333 0 0.6 0.0333333 0 0.633333 0.0333333 0 
0.666667 0.0333333 0 0.7 0.0333333 0 0.733333 0.0333333 0 
0.766667 0.0333333 0 0.8 0.0333333 0 0.833333 0.0333333 0 
0.866667 0.0333333 0 0.9 0.0333333 0 0.933333 0.0333333 0 
0.966667 0.0333333 0 1 0.0333333 0 0 0.0666667 0 
0.0333333 0.0666667 0 0.0666667 0.0666667 0 0.1 0.0666667 0 
0.133333 0.0666667 0 0.166667 0.0666667 0 0.2 0.0666667 0 
0.233333 0.0666667 0 0.266667 0.0666667 0 0.3 0.0666667 0 
0.333333 0.0666667 0 0.366667 0.0666667 0 0.4 0.0666667 0 
0.433333 0.0666667 0 0.466667 0.0666667 0 0.5 0.0666667 0 
0.533333 0.0666667 0 0.566667 0.0666667 0 0.6 0.0666667 0 
0.633333 0.0666667 0 0.666667 0.0666667 0 0.7 0.0666667 0 
0.733333 0.0666667 0 0.766667 0.0666667 0 0.8 0.0666667 0 
0.833333 0.0666667 0 0.866667 0.0666667 0 0.9 0.0666667 0 
0.933333 0.0666667 0 0.966667 0.0666667 0 1 0.0666667 0 
0 0.1 0 0.0333333 0.1 0 0.0666667 0.1 0 
0.1 0.1 0 0.133333 0.1 0 0.166667 0.1 0 
0.2 0.1 0 0.233333 0.1 0 0.266667 0.1 0 
0.3 0.1 0 0.333333 0.1 0 0.366667 0.1 0 
0.4 0.1 0 0.433333 0.1 0 0.466667 0.1 0 
0.5 0.1 0 0.533333 0.1 0 0.566667 0.1 0 
0.6 0.1 0 0.633333 0.1 0 0.666667 0.1 0 
0.7 0.1 0 0.733333 0.1 0 0.766667 0.1 0 
0.8 0.1 0 0.833333 0.1 0 0.866667 0.1 0 
0.9 0.1 0 0.933333 0.1 0 0.966667 0.1 0 
1 0.1 0 0 0.133333 0 0.0333333 0.133333 0 
0.0666667 0.133333 0 0.1 0.133333 0 0.133333 0.133333 0 
0.166667 0.133333 0 0.2 0.133333 0 0.233333 0.133333 0 
0.266667 0.133333 0 0.3 0.133333 0 0.333333 0.133333 0 
0.366667 0.133333 0 0.4 0.133333 0 0.433333 0.133333 0 
0.466667 0.133333 0 0.5 0.133333 0 0.533333 0.133333 0 
0.566667 0.133333 0 0.6 0.133333 0 0.633333 0.133333 0 
0.666667 0.133333 0 0.7 0.133333 0 0.733333 0.133333 0 
0.766667 0.133333 0 0.8 0.133333 0 0.833333 0.133333 0 
0.866667 0.133333 0 0.9 0.133333 0 0.933333 0.133333 0 
0.966667 0.133333 0 1 0.133333 0 0 0.166667 0 
0.0333333 0.166667 0 0.0666667 0.166667 0 0.1 0.166667 0 
0.133333 0.166667 0 0.166667 0.166667 0 0.2 0.166667 0 
0.233333 0.166667 0 0.266667 0.166667 0 0.3 0.166667 0 
0.333333 0.166667 0 0.366667 0.166667 0 0.4 0.166667 0 
0.433333 0.166667 0 0.466667 0.166667 0 0.5 0.166667 0 
0.533333 0.166667 0 0.566667 0.166667 0 0.6 0.166667 0 
0.633333 0.166667 0 0.666667 0.166667 0 0.7 0.166667 0 
0.733333 0.166667 0 0.766667 0.166667 0 0.8 0.166667 0 
0.833333 0.166667 0 0.866667 0.166667 0 0.9 0.166667 0 
0.933333 0.166667 0 0.966667 0.166667 0 1 0.166667 0 
0 0.2 0 0.0333333 0.2 0 0.0666667 0.2 0 
0.1 0.2 0 0.133333 0.2 0 0.166667 0.2 0 
0.2 0.2 0 0.233333 0.2 0 0.266667 0.2 0 
0.3 0.2 0 0.333333 0.2 0 0.366667 0.2 0 
0.4 0.2 0 0.433333 0.2 0 0.466667 0.2 0 
0.5 0.2 0 0.533333 0.2 0 0.566667 0.2 0 
0.6 0.2 0 0.633333 0.2 0 0.666667 0.2 0 
0.7 0.2 0 0.733333 0.2 0 0.766667 0.2 0 
0.8 0.2 0 0.833333 0.2 0 0.866667 0.2 0 
0.9 0.2 0 0.933333 0.2 0 0.966667 0.2 0 
1 0.2 0 0 0.233333 0 0.0333333 0.233333 0 
0.0666667 0.233333 0 0.1 0.233333 0 0.133333 0.233333 0 
0.166667 0.233333 0 0.2 0.233333 0 0.233333 0.233333 0 
0.266667 0.233333 0 0.3 0.233333 0 0.333333 0.233333 0 
0.366667 0.233333 0 0.4 0.233333 0 0.433333 0.233333 0 
0.466667 0.233333 0 0.5 0.233333 0 0.533333 0.233333 0 
0.566667 0.233333 0 0.6 0.233333 0 0.633333 0.233333 0 
0.666667 0.233333 0 0.7 0.233333 0 0.733333 0.233333 0 
0.766667 0.233333 0 0.8 0.233333 0 0.833333 0.233333 0 
0.866667 0.233333 0 0.9 0.233333 0 0.933333 0.233333 0 
0.966667 0.233333 0 1 0.233333 0 0 0.266667 0 
0.0333333 0.266667 0 0.0666667 0.266667 0 0.1 0.266667 0 
0.133333 0.266667 0 0.166667 0.266667 0 0.2 0.266667 0 
0.233333 0.266667 0 0.266667 0.266667 0 0.3 0.266667 0 
0.333333 0.266667 0 0.366667 0.266667 0 0.4 0.266667 0 
0.433333 0.266667 0 0.466667 0.266667 0 0.5 0.266667 0 
0.533333 0.266667 0 0.566667 0.266667 0 0.6 0.266667 0 
0.633333 0.266667 0 0.666667 0.266667 0 0.7 0.266667 0 
0.733333 0.266667 0 0.766667 0.266667 0 0.8 0.266667 0 
0.833333 0.266667 0 0.866667 0.266667 0 0.9 0.266667 0 
0.933333 0.266667 0 0.966667 0.266667 0 1 0.266667 0 
0 0.3 0 0.0333333 0.3 0 0.0666667 0.3 0 
0.1 0.3 0 0.133333 0.3 0 0.166667 0.3 0 
0.2 0.3 0 0.233333 0.3 0 0.266667 0.3 0 
0.3 0.3 0 0.333333 0.3 0 0.366667 0.3 0 
0.4 0.3 0 0.433333 0.3 0 0.466667 0.3 0 
0.5 0.3 0 0.533333 0.3 0 0.566667 0.3 0 
0.6 0.3 0 0.633333 0.3 0 0.666667 0.3 0 
0.7 0.3 0 0.733333 0.3 0 0.766667 0.3 0 
0.8 0.3 0 0.833333 0.3 0 0.866667 0.3 0 
0.9 0.3 0 0.933333 0.3 0 0.966667 0.3 0 
1 0.3 0 0 0.333333 0 0.0333333 0.333333 0 
0.0666667 0.333333 0 0.1 0.333333 0 0.133333 0.333333 0 
0.166667 0.333333 0 0.2 0.333333 0 0.233333 0.333333 0 
0.266667 0.333333 0 0.3 0.333333 0 0.333333 0.333333 0 
0.366667 0.333333 0 0.4 0.333333 0 0.433333 0.333333 0 
0.466667 0.333333 0 0.5 0.333333 0 0.533333 0.333333 0 
0.566667 0.333333 0 0.6 0.333333 0 0.633333 0.333333 0 
0.666667 0.333333 0 0.7 0.333333 0 0.733333 0.333333 0 
0.766667 0.333333 0 0.8 0.333333 0 0.833333 0.333333 0 
0.866667 0.333333 0 0.9 0.333333 0 0.933333 0.333333 0 
0.966667 0.333333 0 1 0.333333 0 0 0.366667 0 
0.0333333 0.366667 0 0.0666667 0.366667 0 0.1 0.366667 0 
0.133333 0.366667 0 0.166667 0.366667 0 0.2 0.366667 0 
0.233333 0.366667 0 0.266667 0.366667 0 0.3 0.366667 0 
0.333333 0.366667 0 0.366667 0.366667 0 0.4 0.366667 0 
0.433333 0.366667 0 0.466667 0.366667 0 0.5 0.366667 0 
0.533333 0.366667 0 0.566667 0.366667 0 0.6 0.366667 0 
0.633333 0.366667 0 0.666667 0.366667 0 0.7 0.366667 0 
0.733333 0.366667 0 0.766667 0.366667 0 0.8 0.366667 0 
0.833333 0.366667 0 0.866667 0.366667 0 0.9 0.366667 0 
0.933333 0.366667 0 0.966667 0.366667 0 1 0.366667 0 
0 0.4 0 0.0333333 0.4 0 0.0666667 0.4 0 
0.1 0.4 0 0.133333 0.4 0 0.166667 0.4 0 
0.2 0.4 0 0.233333 0.4 0 0.266667 0.4 0 
0.3 0.4 0 0.333333 0.4 0 0.366667 0.4 0 
0.4 0.4 0 0.433333 0.4 0 0.466667 0.4 0 
0.5 0.4 0 0.533333 0.4 0 0.566667 0.4 0 
0.6 0.4 0 0.633333 0.4 0 0.666667 0.4 0 
0.7 0.4 0 0.733333 0.4 0 0.766667 0.4 0 
0.8 0.4 0 0.833333 0.4 0 0.866667 0.4 0 
0.9 0.4 0 0.933333 0.4 0 0.966667 0.4 0 
1 0.4 0 0 0.433333 0 0.0333333 0.433333 0 
0.0666667 0.433333 0 0.1 0.433333 0 0.133333 0.433333 0 
0.166667 0.433333 0 0.2 0.433333 0 0.233333 0.433333 0 
0.266667 0.433333 0 0.3 0.433333 0 0.333333 0.433333 0 
0.366667 0.433333 0 0.4 0.433333 0 0.433333 0.433333 0 
0.466667 0.433333 0 0.5 0.433333 0 0.533333 0.433333 0 
0.566667 0.433333 0 0.6 0.433333 0 0.633333 0.433333 0 
0.666667 0.433333 0 0.7 0.433333 0 0.733333 0.433333 0 
0.766667 0.433333 0 0.8 0.433333 0 0.833333 0.433333 0 
0.866667 0.433333 0 0.9 0.433333 0 0.933333 0.433333 0 
0.966667 0.433333 0 1 0.433333 0 0 0.466667 0 
0.0333333 0.466667 0 0.0666667 0.466667 0 0.1 0.466667 0 
0.133333 0.466667 0 0.166667 0.466667 0 0.2 0.466667 0 
0.233333 0.466667 0 0.266667 0.466667 0 0.3 0.466667 0 
0.333333 0.466667 0 0.366667 0.466667 0 0.4 0.466667 0 
0.433333 0.466667 0 0.466667 0.466667 0 0.5 0.466667 0 
0.533333 0.466667 0 0.566667 0.466667 0 0.6 0.466667 0 
0.633333 0.466667 0 0.666667 0.466667 0 0.7 0.466667 0 
0.733333 0.466667 0 0.766667 0.466667 0 0.8 0.466667 0 
0.833333 0.466667 0 0.866667 0.466667 0 0.9 0.466667 0 
0.933333 0.466667 0 0.966667 0.466667 0 1 0.466667 0 
0 0.5 0 0.0333333 0.5 0 0.0666667 0.5 0 
0.1 0.5 0 0.133333 0.5 0 0.166667 0.5 0 
0.2 0.5 0 0.233333 0.5 0 0.266667 0.5 0 
0.3 0.5 0 0.333333 0.5 0 0.366667 0.5 0 
0.4 0.5 0 0.433333 0.5 0 0.466667 0.5 0 
0.5 0.5 0 0.533333 0.5 0 0.566667 0.5 0 
0.6 0.5 0 0.633333 0.5 0 0.666667 0.5 0 
0.7 0.5 0 0.733333 0.5 0 0.766667 0.5 0 
0.8 0.5 0 0.833333 0.5 0 0.866667 0.5 0 
0.9 0.5 0 0.933333 0.5 0 0.966667 0.5 0 
1 0.5 0 0 0.533333 0 0.0333333 0.533333 0 
0.0666667 0.533333 0 0.1 0.533333 0 0.133333 0.533333 0 
0.166667 0.533333 0 0.2 0.533333 0 0.233333 0.533333 0 
0.266667 0.533333 0 0.3 0.533333 0 0.333333 0.533333 0 
0.366667 0.533333 0 0.4 0.533333 0 0.433333 0.533333 0 
0.466667 0.533333 0 0.5 0.533333 0 0.533333 0.533333 0 
0.566667 0.533333 0 0.6 0.533333 0 0.633333 0.533333 0 
0.666667 0.533333 0 0.7 0.533333 0 0.733333 0.533333 0 
0.766667 0.533333 0 0.8 0.533333 0 0.833333 0.533333 0 
0.866667 0.533333 0 0.9 0.533333 0 0.933333 0.533333 0 
0.966667 0.533333 0 1 0.533333 0 0 0.566667 0 
0.0333333 0.566667 0 0.0666667 0.566667 0 0.1 0.566667 0 
0.133333 0.566667 0 0.166667 0.566667 0 0.2 0.566667 0 
0.233333 0.566667 0 0.266667 0.566667 0 0.3 0.566667 0 
0.333333 0.566667 0 0.366667 0.566667 0 0.4 0.566667 0 
0.433333 0.566667 0 0.466667 0.566667 0 0.5 0.566667 0 
0.533333 0.566667 0 0.566667 0.566667 0 0.6 0.566667 0 
0.633333 0.566667 0 0.666667 0.566667 0 0.7 0.566667 0 
0.733333 0.566667 0 0.766667 0.566667 0 0.8 0.566667 0 
0.833333 0.566667 0 0.866667 0.566667 0 0.9 0.566667 0 
0.933333 0.566667 0 0.966667 0.566667 0 1 0.566667 0 
0 0.6 0 0.0333333 0.6 0 0.0666667 0.6 0 
0.1 0.6 0 0.133333 0.6 0 0.166667 0.6 0 
0.2 0.6 0 0.233333 0.6 0 0.266667 0.6 0 
0.3 0.6 0 0.333333 0.6 0 0.366667 0.6 0 
0.4 0.6 0 0.433333 0.6 0 0.466667 0.6 0 
0.5 0.6 0 0.533333 0.6 0 0.566667 0.6 0 
0.6 0.6 0 0.633333 0.6 0 0.666667 0.6 0 
0.7 0.6 0 0.733333 0.6 0 0.766667 0.6 0 
0.8 0.6 0 0.833333 0.6 0 0.866667 0.6 0 
0.9 0.6 0 0.933333 0.6 0 0.966667 0.6 0 
1 0.6 0 0 0.633333 0 0.0333333 0.633333 0 
[...]
CELL_DATA 900
FIELD FieldData 2
p 1 900 float
1.20992 0.732045 0.473811 0.365583 0.29563 0.246823 0.214966 0.192735 0.175541 
0.161329 0.149037 0.138027 0.127915 0.118463 0.109512 0.100953 0.0927081 0.0847199 
0.0769461 0.0693556 0.0619252 0.0546384 0.0474835 0.0404534 0.0335452 0.0267609 0.020113 
0.013613 0.00722543 0.00118687 0.730701 0.569534 0.441292 0.365473 0.307898 0.262452 
0.229265 0.204656 0.18523 0.169177 0.155451 0.143344 0.132384 0.122265 0.112784 
0.103795 0.0951974 0.0869163 0.0788975 0.0711003 0.0634947 0.0560586 0.0487762 0.0416367 
0.034634 0.0277652 0.0210348 0.0144311 0.00793386 0.00124605 0.546902 0.502158 0.429894 
0.367201 0.316623 0.274795 0.241588 0.215581 0.194608 0.177128 0.162169 0.149036 
0.137238 0.126434 0.116389 0.106934 0.0979477 0.0893394 0.081043 0.0730087 0.065199 
0.0575859 0.0501487 0.0428718 0.0357444 0.0287569 0.0219063 0.0151547 0.00855117 0.0010723 
0.465245 0.447139 0.402064 0.354684 0.314328 0.279301 0.249191 0.223966 0.202767 
0.184643 0.168886 0.154957 0.142427 0.130975 0.120364 0.11042 0.101011 0.092036 
0.0834212 0.0751088 0.0670546 0.0592246 0.0515924 0.0441371 0.036842 0.0296899 0.0226722 
0.0157227 0.00899613 0.000884697 0.408648 0.398658 0.371431 0.338595 0.307715 0.279197 
0.253134 0.229995 0.209657 0.191682 0.175666 0.16127 0.14819 0.136174 0.125022 
0.114573 0.104702 0.0953109 0.0863213 0.077672 0.069314 0.0612085 0.0533241 0.0456346 
0.038118 0.0307507 0.0235217 0.0163461 0.0094656 0.000945541 0.368869 0.363063 0.345976 
0.322857 0.299038 0.275853 0.253715 0.233149 0.214345 0.197189 0.181501 0.167103 
0.153818 0.141479 0.129942 0.119085 0.108805 0.0990167 0.0896492 0.0806445 0.0719543 
0.0635385 0.055363 0.0473987 0.0396199 0.0319994 0.0245246 0.0171083 0.0100134 0.00137784 
0.340073 0.336359 0.324832 0.308036 0.289529 0.270674 0.251984 0.233959 0.216909 
0.200905 0.185915 0.171874 0.158701 0.146304 0.134595 0.123492 0.112922 0.102821 
0.0931328 0.0838077 0.0748033 0.0660822 0.0576115 0.0493616 0.0413057 0.033416 0.0256769 
0.0180168 0.0106349 0.00217993 0.318406 0.315789 0.30754 0.294971 0.28039 0.264909 
0.249045 0.233259 0.217892 0.203105 0.188956 0.175457 0.162594 0.150331 0.138624 
0.127429 0.116701 0.106395 0.0964723 0.0868947 0.0776281 0.0686406 0.0599026 0.0513865 
0.0430662 0.0349155 0.0269136 0.0190187 0.0112956 0.0032335 0.301792 0.299831 0.293628 
0.283897 0.272157 0.259248 0.245632 0.231723 0.217845 0.204198 0.190893 0.177993 
0.165527 0.153501 0.141907 0.130729 0.119943 0.109526 0.0994521 0.0896951 0.0802293 
0.0710291 0.0620692 0.0533251 0.0447722 0.0363871 0.0281418 0.0200314 0.011951 0.00436081 
0.28898 0.287438 0.282556 0.274747 0.265049 0.254079 0.242222 0.229833 0.217211 
0.204565 0.192033 0.179709 0.167654 0.155903 0.144474 0.133372 0.122594 0.112131 
0.101969 0.0920935 0.0824852 0.0731248 0.0639912 0.055063 0.0463172 0.0377333 0.0292759 
0.0209754 0.0125607 0.00539805 0.279161 0.277895 0.273887 0.267391 0.259152 0.249622 
0.23911 0.227918 0.216315 0.204505 0.192639 0.180828 0.169153 0.157671 0.146418 
0.135417 0.12468 0.114209 0.104002 0.0940517 0.0843452 0.0748683 0.0656038 0.0565329 
0.047634 0.0388889 0.0302556 0.0217933 0.0130937 0.00624289 0.271801 0.270719 0.267293 
0.261692 0.254479 0.245991 0.236477 0.226195 0.215384 0.204239 0.192913 0.181528 
0.170178 0.158932 0.147842 0.136943 0.126257 0.115799 0.105572 0.0955756 0.0858031 
0.0762439 0.0668838 0.0577061 0.0486905 0.0398202 0.0310482 0.0224538 0.0135301 0.00686248 
0.266543 0.265581 0.262537 0.257528 0.251009 0.243243 0.234433 0.224804 0.214572 
0.20392 0.193003 0.181944 0.170847 0.15979 0.148833 0.138021 0.127385 0.116945 
0.106712 0.0966884 0.0868731 0.0772579 0.0678311 0.0585776 0.0494777 0.0405158 0.0316412 
0.0229456 0.0138598 0.00727349 0.263155 0.262265 0.259451 0.254804 0.248715 0.241403 
0.233042 0.223834 0.21398 0.203655 0.193009 0.182172 0.171247 0.16032 0.149458 
0.138709 0.12811 0.117686 0.107452 0.0974147 0.0875736 0.0779237 0.0684547 0.0591524 
0.0499979 0.0409758 0.0320336 0.0232691 0.0140795 0.00751406 0.261494 0.260638 0.257933 
0.253458 0.247574 0.240481 0.232339 0.223337 0.213669 0.203506 0.192997 0.182271 
0.171434 0.160573 0.149759 0.139043 0.128465 0.11805 0.107817 0.0977728 0.0879198 
0.0782533 0.0687637 0.0594376 0.0502562 0.0412043 0.0322286 0.023429 0.0141897 0.0076214 
0.261494 0.260638 0.257933 0.253458 0.247574 0.240481 0.232339 0.223337 0.213669 
0.203506 0.192997 0.182271 0.171434 0.160573 0.149759 0.139043 0.128465 0.11805 
0.107817 0.0977728 0.0879198 0.0782533 0.0687637 0.0594376 0.0502562 0.0412043 0.0322286 
0.023429 0.0141897 0.00762141 0.263155 0.262265 0.259451 0.254804 0.248715 0.241403 
0.233042 0.223834 0.21398 0.203655 0.193009 0.182172 0.171247 0.16032 0.149458 
0.138709 0.12811 0.117686 0.107452 0.0974147 0.0875736 0.0779237 0.0684547 0.0591524 
0.0499979 0.0409758 0.0320336 0.0232691 0.0140795 0.00751408 0.266543 0.265581 0.262537 
0.257528 0.251008 0.243243 0.234433 0.224804 0.214572 0.20392 0.193003 0.181944 
0.170847 0.15979 0.148833 0.138021 0.127385 0.116945 0.106712 0.0966884 0.0868731 
0.0772579 0.0678311 0.0585776 0.0494777 0.0405157 0.0316412 0.0229456 0.0138598 0.00727353 
0.271801 0.270719 0.267293 0.261692 0.254479 0.245991 0.236477 0.226195 0.215384 
0.204239 0.192913 0.181528 0.170178 0.158932 0.147842 0.136943 0.126257 0.115799 
0.105572 0.0955756 0.0858031 0.0762439 0.0668837 0.0577061 0.0486905 0.0398202 0.0310482 
0.0224538 0.0135302 0.00686254 0.279161 0.277895 0.273887 0.267391 0.259152 0.249622 
0.23911 0.227918 0.216315 0.204505 0.192639 0.180828 0.169153 0.157671 0.146418 
0.135417 0.12468 0.114209 0.104002 0.0940517 0.0843452 0.0748683 0.0656038 0.0565329 
0.047634 0.0388888 0.0302556 0.0217933 0.0130937 0.00624299 0.28898 0.287438 0.282556 
0.274747 0.265049 0.254079 0.242222 0.229833 0.217211 0.204565 0.192033 0.179709 
0.167654 0.155903 0.144474 0.133372 0.122594 0.112131 0.101969 0.0920935 0.0824853 
0.0731248 0.0639912 0.055063 0.0463172 0.0377332 0.0292759 0.0209753 0.0125607 0.00539818 
0.301792 0.299831 0.293628 0.283897 0.272157 0.259248 0.245632 0.231723 0.217845 
0.204198 0.190893 0.177993 0.165527 0.153501 0.141907 0.130729 0.119943 0.109526 
0.099452 0.0896951 0.0802293 0.0710291 0.0620692 0.0533251 0.0447722 0.036387 0.0281418 
0.0200313 0.0119511 0.00436097 0.318406 0.315789 0.30754 0.294971 0.28039 0.264909 
0.249045 0.233259 0.217892 0.203105 0.188956 0.175457 0.162594 0.150331 0.138624 
0.127429 0.116701 0.106395 0.0964722 0.0868947 0.0776281 0.0686406 0.0599026 0.0513865 
0.0430661 0.0349155 0.0269136 0.0190187 0.0112957 0.00323366 0.340073 0.336359 0.324832 
0.308036 0.289529 0.270674 0.251984 0.233959 0.216909 0.200905 0.185914 0.171874 
0.158701 0.146304 0.134595 0.123492 0.112922 0.102821 0.0931328 0.0838077 0.0748033 
0.0660822 0.0576115 0.0493616 0.0413057 0.033416 0.0256769 0.0180168 0.010635 0.00218007 
0.368869 0.363063 0.345976 0.322857 0.299038 0.275853 0.253715 0.233149 0.214345 
0.197189 0.181501 0.167103 0.153818 0.141479 0.129942 0.119085 0.108805 0.0990167 
0.0896491 0.0806445 0.0719543 0.0635385 0.055363 0.0473987 0.0396199 0.0319994 0.0245246 
0.0171083 0.0100134 0.00137795 0.408648 0.398658 0.371431 0.338595 0.307715 0.279197 
0.253134 0.229995 0.209657 0.191682 0.175666 0.16127 0.14819 0.136174 0.125022 
0.114573 0.104702 0.0953109 0.0863213 0.077672 0.069314 0.0612085 0.0533241 0.0456346 
0.038118 0.0307507 0.0235217 0.016346 0.00946563 0.000945601 0.465245 0.447139 0.402064 
0.354684 0.314328 0.279301 0.249191 0.223966 0.202767 0.184643 0.168886 0.154957 
0.142427 0.130975 0.120364 0.11042 0.101011 0.0920359 0.0834212 0.0751088 0.0670547 
0.0592246 0.0515924 0.0441371 0.036842 0.0296899 0.0226722 0.0157227 0.00899614 0.000884721 
0.546902 0.502158 0.429894 0.367201 0.316623 0.274795 0.241588 0.215581 0.194607 
0.177128 0.162168 0.149036 0.137238 0.126434 0.116389 0.106934 0.0979476 0.0893394 
0.081043 0.0730087 0.065199 0.057586 0.0501487 0.0428718 0.0357444 0.0287569 0.0219063 
0.0151548 0.00855116 0.0010723 0.730701 0.569534 0.441292 0.365473 0.307898 0.262452 
0.229265 0.204656 0.18523 0.169177 0.155451 0.143344 0.132384 0.122265 0.112784 
0.103795 0.0951973 0.0869163 0.0788975 0.0711003 0.0634947 0.0560586 0.0487762 0.0416368 
0.034634 0.0277652 0.0210348 0.0144312 0.00793388 0.00124605 1.20992 0.732045 0.473811 
0.365583 0.29563 0.246823 0.214966 0.192735 0.17554 0.161329 0.149037 0.138027 
0.127915 0.118462 0.109512 0.100953 0.0927081 0.0847199 0.0769461 0.0693556 0.0619253 
0.0546384 0.0474835 0.0404535 0.0335453 0.0267609 0.020113 0.013613 0.00722548 0.00118689 

U 3 900 float
0.857484 0.0792257 0 0.739704 0.102728 0 0.597785 0.0669732 0 
0.467491 0.035847 0 0.381608 0.0190692 0 0.325141 0.0104353 0 
0.285116 0.00592987 0 0.256241 0.00361603 0 0.234969 0.00240511 0 
0.2187 0.00172974 0 0.205831 0.00132115 0 0.195387 0.00105335 0 
0.186738 0.000865362 0 0.179455 0.000726188 0 0.173241 0.000619194 0 
0.167879 0.000534866 0 0.163206 0.000467313 0 0.159099 0.000412609 0 
0.15546 0.000368019 0 0.15221 0.000331591 0 0.149286 0.000301923 0 
0.146635 0.000278043 0 0.144212 0.000259393 0 0.141978 0.000245936 0 
0.139896 0.000238479 0 0.13793 0.000240027 0 0.13604 0.000256269 0 
0.13417 0.000295965 0 0.132135 0.000369277 0 0.129183 0.000962598 0 
1.03032 0.132223 0 1.07516 0.220148 0 1.04755 0.206015 0 
0.973077 0.165167 0 0.8907 0.123953 0 0.814917 0.0902421 0 
0.748642 0.0656246 0 0.692606 0.0485931 0 0.64614 0.036948 0 
0.607688 0.0288972 0 0.575662 0.023195 0 0.548752 0.0190312 0 
0.525925 0.015898 0 0.506378 0.0134772 0 0.489488 0.0115656 0 
0.474775 0.0100294 0 0.461859 0.00877768 0 0.450442 0.00774671 0 
0.440282 0.00689055 0 0.431183 0.00617539 0 0.422981 0.00557601 0 
0.415541 0.00507358 0 0.408749 0.00465435 0 0.402503 0.00430927 0 
0.396716 0.00403438 0 0.391304 0.00383357 0 0.386195 0.00372217 0 
0.381297 0.00374626 0 0.376581 0.00395086 0 0.370541 0.00488507 0 
1.01029 0.0717648 0 1.06682 0.158239 0 1.11348 0.190569 0 
1.12605 0.191234 0 1.11005 0.174482 0 1.07689 0.150251 0 
1.03507 0.125486 0 0.990631 0.103543 0 0.947373 0.0853297 0 
0.907196 0.0706714 0 0.870784 0.0590233 0 0.838204 0.0497768 0 
0.809224 0.0423936 0 0.78349 0.0364447 0 0.760618 0.0316033 0 
0.740243 0.0276246 0 0.722036 0.0243258 0 0.705706 0.0215699 0 
0.691003 0.0192533 0 0.677708 0.0172965 0 0.665633 0.0156387 0 
0.654617 0.0142328 0 0.644516 0.013043 0 0.635206 0.0120432 0 
0.626575 0.011216 0 0.618524 0.0105553 0 0.610974 0.0100657 0 
0.603811 0.00978416 0 0.597266 0.00970778 0 0.589022 0.0103598 0 
1.00316 0.0382715 0 1.03581 0.10269 0 1.08285 0.144455 0 
1.12271 0.165642 0 1.14651 0.170689 0 1.15441 0.164321 0 
1.14911 0.151459 0 1.13415 0.135951 0 1.11311 0.120164 0 
1.08883 0.105357 0 1.06333 0.0920911 0 1.03789 0.0805117 0 
1.01333 0.0705454 0 0.990059 0.0620253 0 0.968296 0.0547593 0 
0.948093 0.0485617 0 0.929421 0.0432671 0 0.912204 0.0387342 0 
0.89634 0.034845 0 0.881717 0.031502 0 0.868221 0.0286254 0 
0.855742 0.0261505 0 0.844173 0.0240256 0 0.833416 0.0222102 0 
0.823381 0.0206743 0 0.813981 0.0193992 0 0.805159 0.0183744 0 
0.796781 0.0176141 0 0.789289 0.0170751 0 0.779702 0.0170392 0 
1.00172 0.025079 0 1.01988 0.0715275 0 1.05167 0.106775 0 
1.08715 0.130078 0 1.11896 0.143241 0 1.14384 0.1479 0 
1.16043 0.146005 0 1.16873 0.139682 0 1.16987 0.130753 0 
1.16537 0.120578 0 1.15674 0.110099 0 1.1453 0.0999113 0 
1.13209 0.0903545 0 1.11792 0.0815914 0 1.10336 0.0736745 0 
1.08882 0.0665917 0 1.07457 0.0602952 0 1.06078 0.0547215 0 
1.04756 0.0498018 0 1.03497 0.045469 0 1.02301 0.0416607 0 
1.01168 0.0383216 0 1.00096 0.0354036 0 0.990829 0.0328665 0 
0.981239 0.0306776 0 0.97215 0.0288124 0 0.963549 0.0272521 0 
0.955303 0.0259893 0 0.947979 0.0249854 0 0.938347 0.0241488 0 
1.001 0.0175929 0 1.01188 0.0512848 0 1.03261 0.0791565 0 
1.05873 0.0998816 0 1.08596 0.114175 0 1.11178 0.122799 0 
1.13446 0.12655 0 1.15283 0.126414 0 1.16648 0.12339 0 
1.17558 0.118363 0 1.18059 0.112074 0 1.18216 0.105107 0 
1.18092 0.0978976 0 1.17751 0.09075 0 1.17247 0.083865 0 
1.16624 0.077366 0 1.1592 0.0713205 0 1.15164 0.0657575 0 
1.14378 0.0606808 0 1.13579 0.0560786 0 1.1278 0.0519299 0 
1.11989 0.0482096 0 1.11212 0.0448915 0 1.10454 0.0419507 0 
1.09718 0.0393645 0 1.09004 0.0371133 0 1.08316 0.0351813 0 
1.07645 0.0335478 0 1.07046 0.0322183 0 1.0623 0.0306957 0 
1.00063 0.0128717 0 1.0077 0.0379711 0 1.0218 0.0598888 0 
1.04067 0.077303 0 1.06175 0.0903258 0 1.0835 0.0993986 0 
1.10473 0.104994 0 1.12445 0.107658 0 1.14197 0.107952 0 
1.15692 0.106394 0 1.16918 0.103447 0 1.1788 0.0995164 0 
1.18598 0.0949442 0 1.19098 0.0900057 0 1.19409 0.0849156 0 
1.19559 0.0798354 0 1.19577 0.0748817 0 1.19488 0.0701356 0 
1.19313 0.0656498 0 1.1907 0.0614567 0 1.18775 0.0575733 0 
1.18441 0.0540062 0 1.18078 0.0507554 0 1.17695 0.0478165 0 
1.173 0.0451831 0 1.16896 0.0428473 0 1.1649 0.040804 0 
1.16078 0.0390285 0 1.15704 0.0375837 0 1.15168 0.0356555 0 
1.00044 0.00971544 0 1.00539 0.0288228 0 1.01547 0.0460578 0 
1.02946 0.0603584 0 1.04575 0.0715704 0 1.06327 0.0799079 0 
1.08127 0.0856722 0 1.09907 0.089222 0 1.11613 0.090931 0 
1.13206 0.091144 0 1.1466 0.0901663 0 1.15958 0.0882672 0 
1.17096 0.0856813 0 1.18074 0.0826092 0 1.189 0.0792191 0 
1.19585 0.075649 0 1.20141 0.0720098 0 1.20583 0.0683882 0 
1.20923 0.0648507 0 1.21176 0.0614465 0 1.21353 0.0582116 0 
1.21465 0.0551712 0 1.21523 0.0523424 0 1.21536 0.0497367 0 
1.2151 0.0473614 0 1.21454 0.0452199 0 1.21373 0.0433189 0 
1.2127 0.0416356 0 1.21164 0.0402781 0 1.20983 0.0382816 0 
1.00033 0.00744476 0 1.004 0.0221436 0 1.01157 0.0356777 0 
1.02234 0.0472634 0 1.03523 0.056661 0 1.04949 0.0639306 0 
1.06455 0.0692445 0 1.07995 0.0728412 0 1.09527 0.0749877 0 
1.11022 0.0759403 0 1.12457 0.0759272 0 1.13813 0.0751465 0 
1.1508 0.0737689 0 1.16249 0.0719401 0 1.17317 0.0697834 0 
1.18285 0.0674023 0 1.19154 0.0648835 0 1.19929 0.062298 0 
1.20615 0.0597041 0 1.2122 0.0571483 0 1.2175 0.0546678 0 
1.22213 0.0522918 0 1.22614 0.050043 0 1.22962 0.0479394 0 
1.23262 0.0459951 0 1.23519 0.04422 0 1.2374 0.0426286 0 
1.23932 0.0412027 0 1.24086 0.040069 0 1.24268 0.0382876 0 
1.00026 0.00571438 0 1.00312 0.017021 0 1.00908 0.027575 0 
1.01769 0.0368163 0 1.02821 0.0445063 0 1.0401 0.0506238 0 
1.05291 0.0552532 0 1.06626 0.0585449 0 1.07985 0.0606856 0 
1.09343 0.0618668 0 1.1068 0.0622659 0 1.11982 0.0620397 0 
1.13238 0.0613228 0 1.14439 0.0602288 0 1.15578 0.058853 0 
1.16653 0.0572742 0 1.1766 0.0555582 0 1.18601 0.0537593 0 
1.19475 0.0519224 0 1.20285 0.0500845 0 1.21033 0.0482762 0 
1.21723 0.0465226 0 1.22359 0.0448444 0 1.22944 0.043259 0 
1.23483 0.0417811 0 1.23981 0.0404225 0 1.24439 0.0391994 0 
1.24871 0.0380995 0 1.25238 0.0372419 0 1.25734 0.0358383 0 
1.00022 0.00433195 0 1.00255 0.0129147 0 1.00743 0.0210003 0 
1.01458 0.0281957 0 1.02346 0.0342995 0 1.03365 0.0392584 0 
1.04481 0.0431042 0 1.05662 0.0459261 0 1.06881 0.047849 0 
1.08117 0.0490107 0 1.09354 0.0495456 0 1.10577 0.0495764 0 
1.11777 0.0492109 0 1.12946 0.0485404 0 1.14078 0.0476415 0 
1.15169 0.0465771 0 1.16215 0.0453986 0 1.17215 0.0441483 0 
1.18168 0.0428603 0 1.19074 0.0415628 0 1.19933 0.040279 0 
1.20747 0.039028 0 1.21517 0.0378261 0 1.22247 0.036687 0 
1.22937 0.0356233 0 1.23593 0.034645 0 1.24212 0.033767 0 
1.24813 0.0329818 0 1.25333 0.0323856 0 1.26067 0.0313959 0 
1.00019 0.00317895 0 1.00217 0.00948279 0 1.00634 0.0154586 0 
1.01249 0.0208374 0 1.02023 0.0254653 0 1.02923 0.0292845 0 
1.03921 0.0322999 0 1.04989 0.0345613 0 1.06105 0.0361486 0 
1.07249 0.0371562 0 1.08403 0.0376806 0 1.09557 0.0378133 0 
1.107 0.0376364 0 1.11825 0.0372212 0 1.12926 0.0366278 0 
1.13998 0.0359058 0 1.1504 0.0350959 0 1.16048 0.0342307 0 
1.17021 0.0333368 0 1.1796 0.0324352 0 1.18864 0.0315433 0 
1.19733 0.0306752 0 1.20568 0.0298426 0 1.21372 0.0290558 0 
1.22145 0.0283239 0 1.2289 0.0276549 0 1.23605 0.0270601 0 
1.2431 0.0265362 0 1.24928 0.0261514 0 1.25822 0.0255229 0 
1.00016 0.00217712 0 1.00193 0.00649683 0 1.00563 0.0106087 0 
1.01112 0.0143385 0 1.01809 0.0175795 0 1.02628 0.0202842 0 
1.03545 0.0224468 0 1.04536 0.0240933 0 1.0558 0.0252719 0 
1.06657 0.0260429 0 1.07753 0.0264704 0 1.08855 0.026617 0 
1.09953 0.0265402 0 1.11041 0.0262908 0 1.12111 0.0259122 0 
1.13159 0.0254408 0 1.14184 0.0249063 0 1.15182 0.0243328 0 
1.16153 0.0237395 0 1.17096 0.0231419 0 1.18011 0.0225522 0 
1.18899 0.0219803 0 1.1976 0.0214344 0 1.20595 0.0209214 0 
1.21406 0.0204478 0 1.22195 0.0200189 0 1.22961 0.0196428 0 
1.23723 0.0193185 0 1.24395 0.019089 0 1.25385 0.0187312 0 
1.00015 0.001271 0 1.00178 0.00379376 0 1.00519 0.00620118 0 
1.01029 0.00839549 0 1.01679 0.0103142 0 1.02448 0.0119268 0 
1.03314 0.0132268 0 1.04256 0.0142261 0 1.05253 0.0149502 0 
1.06289 0.0154323 0 1.07347 0.0157091 0 1.08416 0.0158167 0 
1.09485 0.015789 0 1.10547 0.0156563 0 1.11595 0.0154449 0 
1.12625 0.015177 0 1.13635 0.0148707 0 1.14622 0.0145409 0 
1.15585 0.0141996 0 1.16524 0.0138561 0 1.17438 0.0135179 0 
1.18329 0.0131911 0 1.19197 0.0128806 0 1.20043 0.0125905 0 
1.20869 0.0123245 0 1.21677 0.0120859 0 1.22465 0.0118793 0 
1.23254 0.011705 0 1.23952 0.0115853 0 1.24993 0.0114113 0 
1.00015 0.000417982 0 1.00171 0.00124777 0 1.00499 0.00204056 0 
1.0099 0.00276483 0 1.01617 0.00340004 0 1.02362 0.00393581 0 
1.03203 0.00436943 0 1.04121 0.00470431 0 1.05097 0.0049484 0 
1.06112 0.00511233 0 1.07152 0.00520791 0 1.08205 0.00524699 0 
1.09259 0.00524074 0 1.10308 0.00519922 0 1.11346 0.00513123 0 
1.12366 0.00504417 0 1.13368 0.00494423 0 1.14348 0.0048364 0 
1.15306 0.00472472 0 1.16241 0.0046124 0 1.17153 0.00450197 0 
1.18043 0.00439546 0 1.18912 0.00429452 0 1.19761 0.00420052 0 
1.20591 0.00411469 0 1.21405 0.00403815 0 1.22201 0.00397237 0 
1.23001 0.00391763 0 1.2371 0.0038807 0 1.24772 0.00383 0 
1.00015 -0.00041798 0 1.00171 -0.00124776 0 1.00499 -0.00204055 0 
1.0099 -0.00276482 0 1.01617 -0.00340003 0 1.02362 -0.0039358 0 
1.03203 -0.00436942 0 1.04121 -0.0047043 0 1.05097 -0.00494838 0 
1.06112 -0.00511231 0 1.07152 -0.00520787 0 1.08205 -0.00524693 0 
1.09259 -0.00524066 0 1.10308 -0.00519912 0 1.11346 -0.0051311 0 
1.12366 -0.00504402 0 1.13368 -0.00494405 0 1.14348 -0.0048362 0 
1.15306 -0.00472451 0 1.16241 -0.00461217 0 1.17153 -0.00450173 0 
1.18043 -0.0043952 0 1.18912 -0.00429423 0 1.19761 -0.0042002 0 
1.20591 -0.00411433 0 1.21405 -0.00403774 0 1.22201 -0.00397192 0 
1.23001 -0.00391714 0 1.2371 -0.00388015 0 1.24772 -0.00382937 0 
1.00015 -0.001271 0 1.00178 -0.00379376 0 1.00519 -0.00620118 0 
1.01029 -0.00839549 0 1.01679 -0.0103142 0 1.02448 -0.0119268 0 
1.03314 -0.0132268 0 1.04256 -0.0142261 0 1.05253 -0.0149501 0 
1.06289 -0.0154323 0 1.07347 -0.0157091 0 1.08416 -0.0158167 0 
1.09485 -0.0157889 0 1.10547 -0.0156562 0 1.11595 -0.0154448 0 
1.12625 -0.0151768 0 1.13635 -0.0148705 0 1.14622 -0.0145407 0 
1.15585 -0.0141993 0 1.16524 -0.0138558 0 1.17438 -0.0135177 0 
1.18329 -0.0131909 0 1.19197 -0.0128803 0 1.20043 -0.0125902 0 
1.20869 -0.0123241 0 1.21677 -0.0120855 0 1.22465 -0.0118788 0 
1.23254 -0.0117045 0 1.23952 -0.0115848 0 1.24993 -0.0114107 0 
1.00016 -0.00217712 0 1.00193 -0.00649683 0 1.00563 -0.0106087 0 
1.01112 -0.0143385 0 1.01809 -0.0175795 0 1.02628 -0.0202842 0 
1.03545 -0.0224468 0 1.04536 -0.0240933 0 1.0558 -0.0252719 0 
1.06657 -0.0260428 0 1.07753 -0.0264704 0 1.08855 -0.026617 0 
1.09953 -0.0265401 0 1.11041 -0.0262907 0 1.12111 -0.0259121 0 
1.13159 -0.0254406 0 1.14184 -0.0249061 0 1.15182 -0.0243326 0 
1.16153 -0.0237393 0 1.17096 -0.0231417 0 1.18011 -0.0225519 0 
1.18899 -0.02198 0 1.1976 -0.0214341 0 1.20595 -0.0209211 0 
1.21406 -0.0204474 0 1.22195 -0.0200185 0 1.22961 -0.0196424 0 
1.23723 -0.019318 0 1.24395 -0.0190884 0 1.25385 -0.0187306 0 
1.00019 -0.00317895 0 1.00217 -0.00948279 0 1.00634 -0.0154586 0 
1.01249 -0.0208374 0 1.02023 -0.0254653 0 1.02923 -0.0292845 0 
1.03921 -0.0322999 0 1.04989 -0.0345613 0 1.06105 -0.0361486 0 
1.07249 -0.0371561 0 1.08403 -0.0376806 0 1.09557 -0.0378133 0 