/*--------------------------------*- C++ -*----------------------------------*\
| =========                 |                                                 |
| \\      /  F ield         | OpenFOAM: The Open Source CFD Toolbox           |
|  \\    /   O peration     | Version:  2312                                  |
|   \\  /    A nd           | Website:  www.openfoam.com                      |
|    \\/     M anipulation  |                                                 |
\*---------------------------------------------------------------------------*/
FoamFile
{
    version     2.0;
    format      ascii;
    arch        "LSB;label=32;scalar=64";
    class       volScalarField;
    location    "0.2";
    object      p;
}
// * * * * * * * * * * * * * * * * * * * * * * * * * * * * * * * * * * * * * //

dimensions      [0 2 -2 0 0 0 0];

internalField   nonuniform List<scalar> 
900
(
2.8648475e-09
-0.00023584948
-0.00026926059
-8.5342338e-05
0.00031741134
0.00093204346
0.0017464043
0.002746626
0.0039176362
0.005242775
0.0067036225
0.0082800526
0.0099503861
0.011691589
0.013479501
0.015289086
0.017094709
0.018870399
0.020590154
0.022228289
0.023759795
0.02516071
0.026408473
0.027482203
0.028362755
0.029032602
0.029476711
0.029686578
0.02966392
0.029425706
0.00023434473
-4.4845935e-06
-6.8267411e-06
0.00019830807
0.00060247643
0.0012062952
0.0020029182
0.0029808965
0.0041263801
0.0054234223
0.0068540994
0.0083986997
0.010035928
0.011743124
0.013496487
0.015271345
0.017042423
0.01878411
0.020470764
0.02207707
0.023578403
0.024951211
0.026173424
0.027224864
0.02808761
0.028746558
0.029192048
0.029423259
0.029431835
0.029190385
0.00027269523
-8.4135922e-06
-1.4604778e-05
0.00019505203
0.00060089542
0.0012042679
0.001999407
0.0029754342
0.0041189051
0.0054141332
0.0068433419
0.0083869011
0.010023558
0.01173067
0.013484437
0.01526016
0.017032506
0.018775795
0.020464305
0.022072619
0.023575999
0.024950791
0.026174858
0.027228053
0.028092615
0.02875378
0.029202793
0.029439436
0.029443941
0.029158922
9.711076e-05
-0.00022387016
-0.00024154705
-3.1617285e-05
0.00037872597
0.000989785
0.0017954515
0.0027846383
0.0039438074
0.0052571688
0.0067067915
0.0082728464
0.0099338481
0.01166689
0.013447885
0.015251809
0.017052963
0.018825264
0.020542556
0.022178944
0.023709174
0.025109054
0.026355907
0.027429068
0.028310264
0.028984134
0.029441262
0.029680186
0.029673493
0.029347433
-0.00030158888
-0.00065084392
-0.00067719813
-0.00046494465
-4.5233423e-05
0.000581506
0.0014086338
0.0024245829
0.0036154132
0.0049649349
0.0064547872
0.0080646791
0.009772635
0.01155523
0.013387827
0.01524481
0.017099836
0.018926126
0.020696761
0.022385014
0.023964736
0.025410784
0.026699501
0.02780923
0.028720705
0.029417536
0.029889346
0.030133697
0.030119157
0.02976367
-0.00092955555
-0.0013031472
-0.0013359217
-0.0011179158
-0.0006827941
-3.1429738e-05
0.00082895107
0.001886106
0.0031254338
0.0045300686
0.0060809459
0.0077570457
0.00953564
0.011392527
0.013302258
0.015238358
0.017173565
0.019080098
0.020929946
0.022695189
0.024348381
0.025862997
0.027213934
0.028378073
0.02933469
0.030065982
0.030560403
0.030814777
0.030795113
0.030413884
-0.0017934308
-0.0021927891
-0.0022307258
-0.0020030405
-0.0015457471
-0.00086004453
4.6173247e-05
0.0011597899
0.0024652915
0.0039448647
0.0055784676
0.0073440839
0.0092179744
0.011174907
0.013188369
0.015230772
0.017273665
0.019287971
0.021244258
0.023113043
0.024865175
0.026472288
0.027907343
0.029145241
0.0301633
0.030941856
0.031467925
0.031737625
0.031714574
0.031305742
-0.0029040247
-0.0033331356
-0.0033755138
-0.0031339269
-0.0026471315
-0.0019166539
-0.00095119478
0.00023502122
0.0016252964
0.0032005851
0.0049395856
0.0068190163
0.0088138726
0.01089765
0.01304254
0.015219604
0.01739895
0.019549936
0.021641394
0.023641915
0.025520216
0.027245605
0.028788559
0.030121414
0.031218934
0.032059045
0.032626926
0.032917867
0.032892698
0.032451694
-0.0042770339
-0.0047413605
-0.004787843
-0.0045278807
-0.0040036356
-0.0032170706
-0.0021779144
-0.00090179875
0.00059307785
0.00228612
0.0041544626
0.0061732797
0.0083160523
0.010554779
0.012860146
0.015201661
0.017547785
0.019866066
0.022123315
0.024285846
0.026319806
0.028191647
0.029868743
0.031320171
0.032517405
0.033435246
0.034056477
0.034375278
0.034349
0.03386962
-0.0059328754
-0.0064390164
-0.0064895111
-0.0062063337
-0.0056358961
-0.0047808069
-0.0036521429
-0.0022673303
-0.00064645565
0.0011879671
0.0032111723
0.0053964961
0.0077156598
0.010138965
0.012635424
0.015172842
0.01771787
0.020236065
0.022691979
0.025049315
0.027271212
0.029320684
0.031161287
0.032758003
0.034078095
0.035092302
0.03578023
0.036134486
0.036108039
0.035582736
-0.0078967967
-0.0084524941
-0.0085070405
-0.0081952424
-0.0075687978
-0.0066312818
-0.0053955603
-0.0038813581
-0.0021111351
-0.00010976503
0.0020957041
0.0044764585
0.0070022228
0.0096414349
0.012361325
0.015127912
0.017905968
0.02065895
0.023348978
0.025936866
0.028382305
0.030644254
0.032681625
0.034454288
0.035924125
0.037056579
0.037826983
0.038225678
0.038200105
0.037619872
-0.010199343
-0.010813711
-0.0108724
-0.010525746
-0.0098320245
-0.0087962478
-0.0074336758
-0.0057669921
-0.0038216476
-0.0016254159
0.00079193167
0.0033991004
0.0061635962
0.0090518753
0.012029352
0.015060284
0.018107599
0.021132671
0.024095117
0.02695266
0.029661146
0.032174833
0.034447052
0.036431328
0.038082668
0.039359554
0.040231507
0.040685555
0.040662151
0.04001615
-0.012877124
-0.013561052
-0.013623957
-0.013235017
-0.012460757
-0.011308313
-0.0097961758
-0.0079508644
-0.0058016146
-0.0033797706
-0.00071834351
0.0021485384
0.0051859686
0.0083583723
0.011629418
0.014961759
0.018316674
0.021653627
0.024929829
0.028099843
0.031115364
0.033925311
0.036476398
0.038714313
0.040585259
0.042038503
0.043035564
0.043558575
0.043539048
0.042813997
-0.015973926
-0.016740675
-0.016807746
-0.016367369
-0.015496543
-0.014205549
-0.012517288
-0.010463287
-0.0080775949
-0.0053959603
-0.0024552446
0.00070721719
0.0040539559
0.0075474119
0.011149717
0.014822248
0.018525039
0.022216048
0.025850408
0.029379679
0.032751269
0.035908202
0.038789457
0.041331108
0.043468072
0.045137326
0.046289249
0.046898651
0.046885333
0.046064588
-0.019542254
-0.020408325
-0.020479199
-0.019975704
-0.018988391
-0.017532219
-0.015636164
-0.013338354
-0.010678982
-0.0076992313
-0.0044405273
-0.00094380144
0.0027508255
0.0066039823
0.010576653
0.014629497
0.01872197
0.02281124
0.026851025
0.030790376
0.034572579
0.038134399
0.041405974
0.044311692
0.046772014
0.048707459
0.050052707
0.050771464
0.050767697
0.049829829
-0.023645512
-0.0246319
-0.024705551
-0.024123462
-0.022994176
-0.021339644
-0.019197274
-0.016613947
-0.013637726
-0.010316496
-0.0066970577
-0.0028243279
0.0012589211
0.0055118418
0.0098948901
0.014368853
0.018893623
0.023426691
0.027921483
0.032325523
0.036578624
0.04061132
0.044343967
0.047686993
0.050542478
0.052808816
0.054398347
0.055257659
0.055268459
0.054185065
-0.028361115
-0.029495176
-0.029569235
-0.028887278
-0.027582451
-0.025687216
-0.02325074
-0.020331547
-0.016987777
-0.013275551
-0.009247948
-0.0049542138
-0.00043963235
0.0042540238
0.0090875839
0.014023163
0.019022524
0.024045097
0.029045734
0.0339721
0.038761908
0.043340187
0.047617079
0.051486831
0.054828462
0.057510675
0.059413724
0.060457407
0.060490653
0.059222843
-0.033785123
-0.035103356
-0.0351728
-0.034360626
-0.032834759
-0.030643519
-0.027852504
-0.024535698
-0.02076409
-0.016603833
-0.01211523
-0.0073520821
-0.0023618229
0.0028136927
0.0081369142
0.013572889
0.019087177
0.024643357
0.030200156
0.035707956
0.041104815
0.04631214
0.051230489
0.055736325
0.059680459
0.062892057
0.065205129
0.066496981
0.066565746
0.065058389
-0.040039442
-0.041591606
-0.041646115
-0.040658832
-0.038848542
-0.036287478
-0.033064141
-0.029272921
-0.025000996
-0.020326527
-0.015317908
-0.010033475
-0.0045221105
0.00117548
0.0070250314
0.012996575
0.019061912
0.025191624
0.03135163
0.037498739
0.043575276
0.049502715
0.05517463
0.060449734
0.065145889
0.069040648
0.071901633
0.073538219
0.073665718
0.071837908
-0.047283618
-0.049138552
-0.049157063
-0.047925936
-0.045740693
-0.042709367
-0.038952063
-0.034589766
-0.029729633
-0.024463767
-0.018869187
-0.01300827
-0.0069301251
-0.00067256862
0.0057355687
0.01227182
0.018917181
0.025652693
0.032455682
0.039294419
0.046121337
0.05286429
0.05941574
0.065620158
0.071260111
0.076048406
0.07965895
0.081792482
0.082022944
0.079752227
-0.055735552
-0.057988264
-0.057927537
-0.056343939
-0.053651628
-0.050011234
-0.045585586
-0.040529522
-0.034974045
-0.029026624
-0.022772648
-0.016277186
-0.0095875635
-0.0027363023
0.0042558879
0.011377078
0.018620568
0.025982016
0.033455064
0.041025801
0.048664824
0.056316171
0.063882102
0.071202755
0.078029438
0.083999926
0.088660905
0.09154168
0.091965683
0.08906302
-0.065710772
-0.068486989
-0.068257292
-0.066144938
-0.062749446
-0.058305966
-0.053033005
-0.047126838
-0.040745366
-0.034011463
-0.027017086
-0.019827214
-0.012484196
-0.0050119929
0.0025800781
0.010293921
0.018138843
0.026128907
0.034279453
0.042601733
0.051094686
0.059732381
0.068444717
0.07708796
0.085399565
0.092943986
0.099109079
0.10316341
0.10397726
0.10015541
-0.077702723
-0.081145412
-0.080558803
-0.077626119
-0.073232992
-0.067713406
-0.061354117
-0.054398922
-0.047033072
-0.039391973
-0.031569593
-0.02362571
-0.015592774
-0.0074817713
0.00071323315
0.0090115114
0.017441728
0.026039742
0.034847444
0.043908642
0.05326192
0.062928803
0.072892752
0.083061842
0.093201019
0.10283321
0.11118106
0.11714433
0.11877959
0.11364607
-0.092558031
-0.096742183
-0.095402778
-0.091163869
-0.085329302
-0.078348924
-0.070585104
-0.062329994
-0.053790778
-0.045107
-0.036365439
-0.027612014
-0.018861899
-0.010107281
-0.0013225367
0.0075323976
0.016508206
0.025664771
0.035073385
0.044815961
0.054980757
0.065655057
0.076908335
0.088754512
0.10106506
0.1134163
0.12494362
0.13410156
0.13753364
0.13073568
-0.11188065
-0.11649123
-0.11355575
-0.10720607
-0.099266977
-0.090288286
-0.080702149
-0.070837855
-0.060907643
-0.051037127
-0.041289237
-0.031682123
-0.022203062
-0.012817937
-0.0034766994
0.0058841726
0.015339526
0.024972897
0.034884552
0.045195225
0.056047037
0.06760538
0.080056132
0.09358472
0.10829115
0.12401058
0.14008991
0.15472143
0.1623538
0.15444939
-0.13895075
-0.1423291
-0.13597164
-0.12618861
-0.11517125
-0.10345855
-0.091519078
-0.079684911
-0.068135197
-0.056946263
-0.046128636
-0.035651484
-0.025459622
-0.015483516
-0.0056440817
0.0041469233
0.013989777
0.02398629
0.034263651
0.04497385
0.05630543
0.068497591
0.081860703
0.096794452
0.11375256
0.13313632
0.15516439
0.17873628
0.19600112
0.19150793
-0.18053085
-0.1772696
-0.16365735
-0.14824323
-0.13271719
-0.11730268
-0.10239594
-0.088242961
-0.07490642
-0.062345833
-0.050472446
-0.039176926
-0.028344506
-0.017861334
-0.0076158892
0.0025038142
0.012615979
0.022846189
0.033334418
0.04425253
0.055817195
0.06831783
0.082161611
0.097949303
0.11655423
0.1391952
0.16789059
0.20386188
0.23876628
0.25047065
-0.25090446
-0.22387748
-0.19606022
-0.17173436
-0.14983689
-0.12977292
-0.11154605
-0.095054633
-0.080068363
-0.066334433
-0.053615369
-0.041699626
-0.030404809
-0.019572524
-0.009061465
0.001258647
0.011515514
0.021853584
0.032421216
0.043396276
0.055009891
0.067580426
0.081585316
0.097814791
0.11762885
0.14337821
0.17991551
0.2318092
0.29243396
0.34901985
-0.39075538
-0.27480658
-0.22081139
-0.18673311
-0.15883751
-0.13509009
-0.11492327
-0.097360554
-0.08170684
-0.067551125
-0.054568079
-0.042481999
-0.03107394
-0.020167284
-0.009610497
0.00073320482
0.010994606
0.021312516
0.031845029
0.042765115
0.054316348
0.066841423
0.080889694
0.0974386
0.11838797
0.14774909
0.19392902
0.26873792
0.37945939
0.58794848
-0.68487674
-0.31243758
-0.19842713
-0.16813873
-0.14378023
-0.1224686
-0.10549304
-0.090695825
-0.076937141
-0.064064226
-0.051994578
-0.040576411
-0.029668411
-0.019150359
-0.0089090896
0.0011668235
0.011189623
0.021278013
0.031568604
0.042242808
0.053517331
0.065725667
0.079419057
0.095619483
0.11644083
0.14667607
0.1975763
0.29428677
0.50996218
1.0493347
)
;

boundaryField
{
    movingWall
    {
        type            zeroGradient;
    }
    fixedWalls
    {
        type            zeroGradient;
    }
    frontAndBack
    {
        type            empty;
    }
}


// ************************************************************************* //
