/*--------------------------------*- C++ -*----------------------------------*\
| =========                 |                                                 |
| \\      /  F ield         | OpenFOAM: The Open Source CFD Toolbox           |
|  \\    /   O peration     | Version:  2312                                  |
|   \\  /    A nd           | Website:  www.openfoam.com                      |
|    \\/     M anipulation  |                                                 |
\*---------------------------------------------------------------------------*/
FoamFile
{
    version     2.0;
    format      ascii;
    arch        "LSB;label=32;scalar=64";
    class       surfaceScalarField;
    location    "0.2";
    object      phi;
}
// * * * * * * * * * * * * * * * * * * * * * * * * * * * * * * * * * * * * * //

dimensions      [0 3 -1 0 0 0 0];

oriented        oriented;

internalField   nonuniform List<scalar> 
1740
(
-4.3263547e-06
4.3263318e-06
-1.9977419e-05
1.5651056e-05
-4.1221521e-05
2.124409e-05
-6.3909568e-05
2.26881e-05
-8.6244061e-05
2.233453e-05
-0.00010750282
2.1258746e-05
-0.00012733011
1.9827274e-05
-0.00014547978
1.8149668e-05
-0.00016174082
1.6261066e-05
-0.00017592344
1.418263e-05
-0.00018785979
1.1936345e-05
-0.00019740628
9.5464643e-06
-0.00020444499
7.0386854e-06
-0.00020888455
4.4395314e-06
-0.00021066076
1.776194e-06
-0.00020973738
-9.2339338e-07
-0.00020610714
-3.6302451e-06
-0.00019979277
-6.3143671e-06
-0.00019084818
-8.9445781e-06
-0.00017935954
-1.1488607e-05
-0.00016544616
-1.3913336e-05
-0.00014926051
-1.6185636e-05
-0.000130987
-1.8273538e-05
-0.00011084216
-2.0144876e-05
-8.909044e-05
-2.175175e-05
-6.6122366e-05
-2.2968106e-05
-4.2718476e-05
-2.3403927e-05
-2.0768823e-05
-2.1949666e-05
-4.5592597e-06
-1.6209507e-05
-4.5592491e-06
-1.5675801e-05
2.0002128e-05
-5.0560012e-05
5.0535259e-05
-9.4326553e-05
6.501053e-05
-0.00014070255
6.9064051e-05
-0.0001865225
6.8154538e-05
-0.00023027491
6.5011238e-05
-0.00027113291
6.0685323e-05
-0.00030852472
5.554148e-05
-0.0003419857
4.9722031e-05
-0.00037111676
4.3313652e-05
-0.00039557505
3.6394595e-05
-0.00041507282
2.904419e-05
-0.00042937766
2.134348e-05
-0.00043831288
1.3374711e-05
-0.00044175795
5.2212447e-06
-0.00043964965
-3.0317033e-06
-0.0004319834
-1.1296484e-05
-0.00041881509
-1.9482626e-05
-0.00040026293
-2.74967e-05
-0.00037650976
-3.5241745e-05
-0.00034780537
-4.2617719e-05
-0.00031446838
-4.9522627e-05
-0.00027688937
-5.5852585e-05
-0.00023554188
-6.1492426e-05
-0.00019102681
-6.6266873e-05
-0.00014422601
-6.9768964e-05
-9.6742372e-05
-7.0887617e-05
-5.1882123e-05
-6.680997e-05
-1.6110908e-05
-5.1980862e-05
-2.0670086e-05
-2.1791837e-05
4.1793953e-05
-6.6688874e-05
9.54324e-05
-0.00012162753
0.00011994921
-0.0001793543
0.00012679078
-0.00023626483
0.00012506507
-0.00029058361
0.00011933004
-0.00034129582
0.00011139757
-0.00038768365
0.0001019293
-0.00042916491
9.120327e-05
-0.00046524488
7.9393572e-05
-0.00049550315
6.6652795e-05
-0.00051959013
5.3131121e-05
-0.00053722595
3.8979262e-05
-0.00054819985
2.4348587e-05
-0.0005523701
9.3914845e-06
-0.00054966437
-5.7374208e-06
-0.00054008099
-2.087984e-05
-0.00052369096
-3.5872615e-05
-0.00050064085
-5.0546749e-05
-0.00047115605
-6.4726499e-05
-0.00043554416
-7.8229604e-05
-0.00039419866
-9.0868152e-05
-0.00034760455
-0.00010244672
-0.00029635348
-0.00011274349
-0.00024119509
-0.00012142524
-0.00018320462
-0.00012775942
-0.00012425889
-0.00012983329
-6.8118611e-05
-0.00012295016
-2.2252748e-05
-9.7846789e-05
-4.2922778e-05
-2.4375502e-05
6.6169396e-05
-7.4328028e-05
0.00014538499
-0.00013499538
0.00018061664
-0.00019842579
0.00019022122
-0.00026080143
0.00018744071
-0.00032026134
0.00017878995
-0.00037573019
0.00016686642
-0.00042643672
0.0001526358
-0.0004717523
0.00013651881
-0.00051114387
0.00011878509
-0.00054416078
9.9669646e-05
-0.00057043039
7.9400688e-05
-0.00058965579
5.8204636e-05
-0.00060161413
3.6306934e-05
-0.00060615575
1.3933123e-05
-0.00060320385
-8.6893013e-06
-0.00059275545
-3.132821e-05
-0.00057488376
-5.3744261e-05
-0.000549742
-7.5688489e-05
-0.00051756757
-9.6900922e-05
-0.00047868681
-0.00011711036
-0.00043352016
-0.00013603481
-0.00038258904
-0.00015337785
-0.00032653145
-0.00016880109
-0.00026615263
-0.00018180411
-0.00020259382
-0.00019131825
-0.00013782805
-0.000194599
-7.5848409e-05
-0.00018492985
-2.485047e-05
-0.00014884472
-6.777327e-05
-2.5783989e-05
9.195337e-05
-7.8934134e-05
0.00019853513
-0.00014341034
0.0002450929
-0.00021067634
0.00025748726
-0.00027671069
0.00025347507
-0.00033958182
0.00024166107
-0.00039817849
0.00022546306
-0.00045170312
0.0002061604
-0.00049950615
0.00018432179
-0.00054103878
0.00016031768
-0.00057583947
0.00013447031
-0.00060352852
0.00010708972
-0.00062380433
7.8480447e-05
-0.00063644039
4.8943018e-05
-0.00064128321
1.8775976e-05
-0.00063825143
-1.1721055e-05
-0.00062733663
-4.2243005e-05
-0.00060860608
-7.2474817e-05
-0.00058220725
-0.00010208733
-0.00054837357
-0.00013073464
-0.00050743095
-0.00015805303
-0.00045980489
-0.00018366091
-0.00040602907
-0.00020715368
-0.00034676199
-0.00022806815
-0.00028283877
-0.00024572735
-0.00021544581
-0.00025871126
-0.00014664437
-0.00026340048
-8.0660585e-05
-0.00025091374
-2.6316335e-05
-0.00020318891
-9.4089691e-05
-2.7097405e-05
0.00011905082
-8.3232825e-05
0.00025467053
-0.00015135567
0.00031321575
-0.00022235883
0.00032849044
-0.00029197979
0.00032309604
-0.00035819003
0.00030787131
-0.00041983325
0.00028710626
-0.00047608658
0.0002624137
-0.00052628536
0.00023452054
-0.00056987279
0.00020390508
-0.00060638453
0.00017098205
-0.00063544125
0.00013614647
-0.00065674277
9.9781982e-05
-0.00067006298
6.226325e-05
-0.00067524628
2.3959294e-05
-0.0006722058
-1.4761535e-05
-0.00066092402
-5.352481e-05
-0.00064145598
-9.1942898e-05
-0.0006139349
-0.00012960846
-0.00057857988
-0.00016608971
-0.00053570511
-0.00020092785
-0.0004857299
-0.00023363614
-0.00042919034
-0.00026369325
-0.00036675901
-0.00029049953
-0.0002993012
-0.00031318519
-0.00022806171
-0.00032995073
-0.00015522428
-0.00033623795
-8.5297842e-05
-0.00032084019
-2.7733987e-05
-0.00026075275
-0.0001218237
-2.8691746e-05
0.00014774262
-8.8292319e-05
0.0003142711
-0.00016064069
0.00038556412
-0.00023599673
0.0004038465
-0.00030980636
0.00039690569
-0.00037991299
0.00037797793
-0.00044509978
0.00035229304
-0.00050451302
0.00032182692
-0.00055747339
0.00028748089
-0.00060342008
0.00024985175
-0.00064189167
0.00020945365
-0.00067251531
0.00016677014
-0.00069499764
0.00012226433
-0.00070911692
7.6382548e-05
-0.00071471728
2.9559644e-05
-0.00071170555
-1.7773282e-05
-0.00070005156
-6.5178816e-05
-0.0006797919
-0.0001122026
-0.00065103705
-0.00015836335
-0.00061398189
-0.0002031449
-0.00056891843
-0.00024599132
-0.00051625028
-0.00028630426
-0.0004565091
-0.00032343441
-0.00039037965
-0.00035662897
-0.00031876399
-0.00038480082
-0.00024298494
-0.00040572969
-0.00016538854
-0.00041383436
-9.0831405e-05
-0.00039539723
-2.9477421e-05
-0.00032210681
-0.00015130105
-3.0689875e-05
0.00017843251
-9.4511015e-05
0.00037809227
-0.00017196939
0.00046302251
-0.00025258005
0.00048445718
-0.00033143754
0.00047576319
-0.00040622591
0.0004527663
-0.00047565279
0.0004217199
-0.00053882833
0.00038500244
-0.00059505977
0.00034371231
-0.00064378761
0.00029857958
-0.00068456093
0.00025022697
-0.00071702152
0.00019923075
-0.00074089029
0.00014613313
-0.00075595548
9.1447756e-05
-0.00076206386
3.5668018e-05
-0.00075911567
-2.0721478e-05
-0.00074706421
-7.7230288e-05
-0.00072592021
-0.0001333466
-0.00069576115
-0.00018852242
-0.00065674512
-0.00024216092
-0.00060912859
-0.00029360781
-0.00055328691
-0.00034214589
-0.00048973779
-0.0003869835
-0.00041917451
-0.00042719225
-0.00034254134
-0.00046143397
-0.00026125864
-0.00048701235
-0.00017787632
-0.00049721672
-9.7676608e-05
-0.00047559689
-3.1672984e-05
-0.00038811053
-0.00018297403
-3.314692e-05
0.00021157943
-0.00010208745
0.00044703285
-0.00018570681
0.0005466419
-0.00027262718
0.00057137757
-0.0003575207
0.00056065671
-0.00043787917
0.00053312475
-0.00051232092
0.00049616161
-0.00057991749
0.00045259896
-0.00063996738
0.00040376219
-0.00069192188
0.00035053408
-0.00073535245
0.00029365754
-0.00076992788
0.00023380619
-0.00079539436
0.00017159962
-0.00081155852
0.00010761192
-0.00081827448
4.238399e-05
-0.00081543627
-2.355969e-05
-0.00080297617
-8.969039e-05
-0.00078086987
-0.00015545289
-0.00074914823
-0.00022024406
-0.00070791559
-0.00028339356
-0.00065737395
-0.00034414945
-0.00059785168
-0.00040166816
-0.00052983689
-0.00045499832
-0.00045402227
-0.0005030069
-0.00037139596
-0.00054406028
-0.00028349424
-0.00057491409
-0.00019311664
-0.00058759435
-0.00010606558
-0.00056264803
-3.4385454e-05
-0.00045979066
-0.00021735958
-3.6114873e-05
0.00024769431
-0.00011119774
0.00052211576
-0.00020217295
0.00063761714
-0.00029658881
0.00066579342
-0.00038861045
0.00065267833
-0.00047550096
0.00062001524
-0.00055577711
0.00057643772
-0.00062847336
0.00052529518
-0.00069289002
0.00046817883
-0.00074850499
0.00040614905
-0.00079493046
0.00034008301
-0.00083188049
0.00027075621
-0.00085914275
0.00019886187
-0.00087655457
0.00012502372
-0.00088398474
4.9814146e-05
-0.00088132236
-2.6222074e-05
-0.00086847364
-0.00010253913
-0.00084536752
-0.00017855902
-0.00081197033
-0.00025364128
-0.00076830945
-0.00032705449
-0.00071450557
-0.00039795337
-0.00065081231
-0.00046536144
-0.00057766306
-0.00052814759
-0.00049573213
-0.00058493784
-0.00040604697
-0.0006337454
-0.00031027675
-0.00067068432
-0.0002115233
-0.00068634775
-0.00011622479
-0.00065794662
-3.7682211e-05
-0.00053833316
-0.00025504182
-3.9662466e-05
0.0002873568
-0.00012205702
0.00060451035
-0.00022174752
0.00073730766
-0.00032499086
0.00076903674
-0.00042534391
0.00075303135
-0.00051979989
0.00071447121
-0.00060676381
0.00066340163
-0.00068524079
0.00060377215
-0.00075455164
0.00053748967
-0.00081422587
0.00046582326
-0.00086394365
0.00038980078
-0.00090349074
0.00031030328
-0.0009327192
0.00022809029
-0.00095151465
0.00014381912
-0.00095977125
5.8070719e-05
-0.00095737606
-2.8617264e-05
-0.00094420348
-0.00011571171
-0.00092012119
-0.00020264133
-0.00088500762
-0.00028875488
-0.00083878195
-0.00037328018
-0.00078144621
-0.00045528911
-0.00071313886
-0.00053366877
-0.00063419974
-0.00060708666
-0.00054525395
-0.00067388354
-0.00044735398
-0.00073164529
-0.00034231592
-0.00077572235
-0.00023360554
-0.00079505806
-0.0001284393
-0.00076311285
-4.1653244e-05
-0.00062511924
-0.00029669497
-4.3883121e-05
0.00033123994
-0.00013494771
0.00069557494
-0.00024491964
0.00084727961
-0.00035850065
0.00088261775
-0.00046851741
0.00086304809
-0.00057164696
0.00081760075
-0.00066617634
0.00075793103
-0.00075109834
0.00068869416
-0.00082578497
0.00061217629
-0.00088985496
0.00052989321
-0.00094309588
0.00044304167
-0.0009854022
0.00035260956
-0.0010167221
0.0002594102
-0.0010370138
0.00016411078
-0.001046212
6.7268931e-05
-0.0010442068
-3.0622396e-05
-0.0010308349
-0.00012908363
-0.0010058849
-0.00022759136
-0.0009691176
-0.00032552212
-0.00092030292
-0.00042209485
-0.00085927312
-0.00051631889
-0.00078599392
-0.00060694793
-0.00070065332
-0.00069242721
-0.00060377687
-0.00077075993
-0.00049641196
-0.00083901017
-0.00038052921
-0.0008916051
-0.0002600301
-0.0009155572
-0.00014308761
-0.0008800553
-4.6420535e-05
-0.00072178644
-0.00034311551
-4.8903217e-05
0.00038014317
-0.0001502462
0.0007969179
-0.00027233272
0.00096936613
-0.00039798393
0.001008269
-0.00051914804
0.0009842122
-0.00063213488
0.0009305876
-0.00073511517
0.00086091133
-0.00082710085
0.00078067984
-0.00090756315
0.00069263858
-0.00097626525
0.0005985953
-0.0010331576
0.00049993396
-0.0010782941
0.00039774603
-0.0011117618
0.00029287799
-0.0011336242
0.00018597313
-0.0011438774
7.752222e-05
-0.0011424229
-3.207688e-05
-0.0011290536
-0.00014245288
-0.0011034586
-0.00025318642
-0.0010652445
-0.00036373627
-0.0010139787
-0.00047336065
-0.0009492554
-0.00058104211
-0.00087078725
-0.00068541604
-0.00077852457
-0.00078468986
-0.00067281373
-0.00087647076
-0.00055464118
-0.00095718273
-0.00042612592
-0.0010201204
-0.0002916869
-0.0010499963
-0.00016067968
-0.0010110625
-5.2149694e-05
-0.00083031642
-0.00039526528
-5.4894886e-05
0.00043503808
-0.00016846035
0.00091048335
-0.00030484436
0.0011057501
-0.00044457762
0.0011480023
-0.00057854839
0.001118183
-0.0007026459
0.0010546851
-0.00081494068
0.00097320609
-0.0009145181
0.00088025725
-0.0010010219
0.00077914238
-0.001074439
0.00067201243
-0.0011349592
0.00056045414
-0.0011828638
0.00044565064
-0.0012184351
0.00032844927
-0.0012418839
0.00020942199
-0.0012532962
8.8934537e-05
-0.0012525969
-3.2776215e-05
-0.0012395309
-0.00015551887
-0.0012136645
-0.00027905275
-0.0011744068
-0.00040299403
-0.0011210565
-0.00052671086
-0.0010528807
-0.00064921783
-0.00096922855
-0.00076906814
-0.00086968862
-0.00088422973
-0.00075430463
-0.00099185471
-0.00062390431
-0.001087583
-0.00048072184
-0.0011633027
-0.00032978207
-0.001200936
-0.00018191262
-0.0011589319
-5.9067867e-05
-0.00095316105
-0.00045433311
-6.2096311e-05
0.0004971344
-0.00019028625
0.0010386733
-0.00034361413
0.001259078
-0.00049979306
0.0013041812
-0.00064842894
0.0012668189
-0.0007849407
0.0011911969
-0.00090734123
0.0010956066
-0.0010148793
0.00098779529
-0.0011074809
0.00087174395
-0.0011854686
0.00075000019
-0.0012493749
0.00062436044
-0.0012997973
0.0004960731
-0.0013372849
0.0003659368
-0.0013622499
0.00023438706
-0.0013749039
0.00010158853
-0.0013752133
-3.2466892e-05
-0.0013628734
-0.00016785872
-0.0013373046
-0.00030462151
-0.0012976688
-0.00044262965
-0.0012429176
-0.00058146207
-0.0011718773
-0.000720258
-0.0010833863
-0.00085755912
-0.00097649491
-0.00099112114
-0.00085075577
-0.0011175938
-0.00070667194
-0.0012316668
-0.00054650781
-0.0013234669
-0.00037597876
-0.001371465
-0.0002077575
-0.0013271532
-6.7491502e-05
-0.0010934271
-0.00052182459
-7.0844268e-05
0.00056797865
-0.0002166966
0.0011845256
-0.00039023593
0.0014326173
-0.00056566626
0.0014796115
-0.0007310414
0.001432194
-0.00088127763
0.0013414331
-0.0010144197
0.0012287487
-0.0011300251
0.0011034006
-0.0012284639
0.00097018277
-0.0013105501
0.00083208634
-0.0013772951
0.0006911055
-0.0014297257
0.00054850366
-0.0014687457
0.0004049568
-0.0014950347
0.00026067608
-0.0015089743
0.00011552815
-0.0015105971
-3.0843986e-05
-0.0014995532
-0.00017890259
-0.0014750965
-0.00032907824
-0.0014360913
-0.00048163481
-0.0013810518
-0.00063650153
-0.0013082269
-0.00079308289
-0.0012157518
-0.00095003429
-0.0011018927
-0.0011049803
-0.00096542815
-0.0012540584
-0.0008062607
-0.0013908342
-0.00062650368
-0.0015032239
-0.00043261727
-0.0015653514
-0.0002395986
-0.0015201719
-7.7872048e-05
-0.0012551537
-0.00059969667
-8.162787e-05
0.00064960648
-0.00024908154
0.0013519793
-0.00044694094
0.0016304767
-0.00064497905
0.0016776496
-0.00082938021
0.0016165952
-0.00099457173
0.0015066246
-0.0011388013
0.0013729783
-0.0012621655
0.0012267648
-0.0013657144
0.0010737317
-0.0014509648
0.00091733678
-0.0015195835
0.00075972413
-0.0015731641
0.00060208427
-0.0016130699
0.00044486264
-0.0016403235
0.0002879297
-0.0016555296
0.00013073418
-0.0016588199
-2.7553649e-05
-0.0016498117
-0.00018791076
-0.0016275812
-0.00035130875
-0.0015906504
-0.00051856564
-0.0015370041
-0.00069014782
-0.0014641566
-0.00086593043
-0.0013693
-0.0010448908
-0.0012495828
-0.0012246974
-0.0011025915
-0.0014010496
-0.00092717812
-0.0015662475
-0.0007249478
-0.0017054541
-0.00050306853
-0.0017872307
-0.00027946469
-0.0017437757
-9.087388e-05
-0.0014437444
-0.0006905705
-9.5181135e-05
0.00074478759
-0.00028947958
0.0015462778
-0.00051691466
0.0018579118
-0.00074158707
0.0019023221
-0.00094746515
0.0018224733
-0.0011286033
0.0016877627
-0.0012837621
0.001528137
-0.0014139377
0.0013569405
-0.0015211969
0.0011809909
-0.0016080411
0.001004181
-0.0016770109
0.00082869387
-0.0017304287
0.0006555021
-0.0017702328
0.00048466675
-0.0017978707
0.00031556748
-0.0018142281
0.00014709162
-0.0018195777
-2.2204027e-05
-0.0018135301
-0.0001939583
-0.0017949902
-0.00036984852
-0.0017621119
-0.00055144385
-0.0017122719
-0.0007399878
-0.0016420879
-0.00093611443
-0.0015475282
-0.0011394506
-0.0014241881
-0.0013480374
-0.0012678599
-0.0015573779
-0.0010756232
-0.0017584843
-0.00084790353
-0.0019331739
-0.00059231717
-0.002042817
-0.00033042875
-0.0020056642
-0.00010751328
-0.0016666599
-0.00079808377
-0.00011265025
0.00085743787
-0.00034096776
0.0017745954
-0.00060480001
0.0021217441
-0.00086090807
0.0021584301
-0.0010907331
0.0020522983
-0.0012882823
0.001885312
-0.0014533717
0.0016932264
-0.0015884489
0.0014920177
-0.0016970685
0.0012896105
-0.0017830788
0.0010901913
-0.0018501536
0.0008957687
-0.0019015201
0.0007068686
-0.0019398076
0.00052295425
-0.0019669667
0.00034272662
-0.0019842225
0.00016434755
-0.0019920372
-1.438934e-05
-0.0019900592
-0.00019593632
-0.0019770592
-0.00038284854
-0.001950837
-0.00057766613
-0.0019081237
-0.00078270109
-0.0018445065
-0.00099973162
-0.0017544346
-0.0012295225
-0.0016314174
-0.0014710546
-0.0014686163
-0.001720179
-0.0012602082
-0.0019668925
-0.0010042167
-0.0021891654
-0.00070795132
-0.0023390823
-0.00039733101
-0.0023162844
-0.0001294266
-0.0019345643
-0.00092751041
-0.00013591109
0.00099334902
-0.00040833893
0.0020470233
-0.00071750345
0.0024309086
-0.0010106423
0.002451569
-0.0012665634
0.0023082194
-0.0014799582
0.0020987067
-0.0016526164
0.0018658846
-0.0017892629
0.0016286643
-0.0018955778
0.0013959254
-0.0019772011
0.0011718145
-0.0020392241
0.00095779182
-0.0020859481
0.00075359255
-0.0021207895
0.00055779569
-0.0021462607
0.00036819777
-0.0021639723
0.00018205918
-0.0021746291
-3.7324967e-06
-0.0021779838
-0.00019258163
-0.0021727566
-0.00038807565
-0.0021564761
-0.00059394656
-0.0021252773
-0.00081389983
-0.0020736706
-0.0010513382
-0.0019943441
-0.0013088489
-0.0018781388
-0.0015872599
-0.0017144933
-0.0018838244
-0.0014929723
-0.0021884134
-0.0012070386
-0.0024750991
-0.00086189371
-0.0026842273
-0.00048815414
-0.002690024
-0.00015942919
-0.0022632893
-0.0010869396
-0.00016819726
0.0011615463
-0.00049929604
0.002378122
-0.00086547301
0.0027970856
-0.0012017897
0.0027878856
-0.0014849094
0.0025913392
-0.001711686
0.0023254833
-0.0018873858
0.0020415844
-0.0020202044
0.0017614829
-0.0021187695
0.0014944905
-0.0021910161
0.0012440612
-0.0022437251
0.0010105008
-0.002282394
0.00079226148
-0.0023112694
0.00058667107
-0.0023334375
0.00039036586
-0.0023509118
0.00019953353
-0.002364689
1.0044678e-05
-0.0023747158
-0.00018255484
-0.0023798099
-0.00038298164
-0.0023774162
-0.00059634031
-0.002363274
-0.00082804201
-0.0023309592
-0.0010836531
-0.0022713445
-0.0013684637
-0.0021721143
-0.0016864902
-0.002017714
-0.0020382248
-0.0017906627
-0.0024154646
-0.0014761897
-0.0027895722
-0.0010734724
-0.0030869445
-0.0006167516
-0.0031467448
-0.00020276092
-0.00267728
-0.0012897005
-0.00021536251
0.0013769088
-0.00062652318
0.0027892827
-0.0010645922
0.0032351547
-0.0014498587
0.0031731521
-0.0017587514
0.0029002318
-0.0019930608
0.0025597927
-0.0021638851
0.0022124088
-0.0022845261
0.001882124
-0.0023675361
0.0015775004
-0.0024236365
0.0013001616
-0.0024614779
0.0010483422
-0.0024877641
0.00081854765
-0.0025075079
0.00060641493
-0.0025242993
0.00040715723
-0.0025405217
0.00021575592
-0.0025574754
2.6998413e-05
-0.0025754408
-0.00016458945
-0.0025935348
-0.00036488756
-0.0026094516
-0.00058042348
-0.0026189654
-0.00081852812
-0.0026151935
-0.001087425
-0.0025875627
-0.0013960944
-0.0025205328
-0.0017535201
-0.0023924344
-0.0021663232
-0.0021756541
-0.0026322449
-0.0018413127
-0.0031239136
-0.0013746036
-0.0035536536
-0.00080827133
-0.0037130771
-0.00027000029
-0.003215551
-0.0015597008
-0.00028835168
0.0016652605
-0.00081095075
0.0033118816
-0.0013383312
0.0037625351
-0.0017753178
0.0036101388
-0.0021030323
0.0032279462
-0.0023330639
0.0027898243
-0.0024858055
0.0023651504
-0.00258172
0.0019780385
-0.0026382738
0.0016340543
-0.0026692904
0.0013311782
-0.0026852397
0.0010642915
-0.002693822
0.00082712997
-0.0027005735
0.00061316646
-0.0027093839
0.00041596762
-0.002722882
0.00022925397
-0.0027426762
4.6792625e-05
-0.0027694669
-0.00013779882
-0.0028029699
-0.00033138452
-0.002841611
-0.00054178242
-0.0028819278
-0.00077821143
-0.0029175602
-0.0010517926
-0.0029376331
-0.0013760216
-0.0029243408
-0.0017668124
-0.0028497926
-0.0022408714
-0.002673296
-0.0028087415
-0.002343522
-0.0034536876
-0.0018167264
-0.0040804493
-0.0011090354
-0.0044207681
-0.00038376285
-0.0039408235
-0.0019434637
-0.0004075935
0.002072854
-0.0010854183
0.0039897063
-0.0017173642
0.004394481
-0.0021990383
0.0040918128
-0.0025269508
0.0035558587
-0.0027302976
0.002993171
-0.0028433516
0.0024782045
-0.0028959018
0.0020305886
-0.0029109511
0.0016491036
-0.002905239
0.0013254661
-0.002890536
0.0010495885
-0.0028749514
0.00081154545
-0.0028640211
0.00060223615
-0.0028615332
0.00041347976
-0.0028701104
0.00023783121
-0.0028915697
6.8251856e-05
-0.0029271165
-0.00010225197
-0.0029773508
-0.00028115011
-0.0030420173
-0.00047711591
-0.0031194287
-0.00070080004
-0.0032053345
-0.00096588677
-0.003290837
-0.0012905191
-0.0033587388
-0.0016989106
-0.0033775606
-0.0022220496
-0.0032933019
-0.0028930002
-0.0030235007
-0.0037234888
-0.0024712042
-0.0046327458
-0.0015992558
-0.0052927165
-0.00059174352
-0.0049483358
-0.0025352072
-0.00060881628
0.0026816703
-0.001492728
0.004873618
-0.0022252452
0.0051269981
-0.0027179177
0.0045844854
-0.0030029079
0.0038408488
-0.0031378798
0.003128143
-0.0031758322
0.0025161569
-0.0031571448
0.0020119012
-0.0031097517
0.0016017105
-0.0030520023
0.0012677167
-0.0029955825
0.00099316878
-0.0029478085
0.00076377142
-0.0029132717
0.00056769935
-0.0028949723
0.00039518032
-0.0028950705
0.00023792938
-0.0029153368
8.8518155e-05
-0.0029574252
-6.0163469e-05
-0.0030230126
-0.00021556275
-0.0031136383
-0.00038649014
-0.0032304414
-0.00058399696
-0.0033732319
-0.00082309626
-0.0035384419
-0.0011253091
-0.0037148423
-0.0015225102
-0.0038748946
-0.0020619972
-0.0039589969
-0.0028088979
-0.0038533485
-0.0038291371
-0.0033811798
-0.0051049145
-0.0023821481
-0.0062917483
-0.00098076922
-0.0063497146
-0.0035159764
-0.0009422502
0.0036239205
-0.0020544448
0.0059858126
-0.0028145708
0.0058871241
-0.0032189071
0.0049888217
-0.0033676542
0.0039895959
-0.0033576783
0.0031181671
-0.0032624404
0.002420919
-0.003130676
0.0018801368
-0.0029915874
0.0014626219
-0.0028615596
0.0011376889
-0.0027492954
0.00088090457
-0.0026591568
0.00067363292
-0.0025932495
0.00050179201
-0.0025527046
0.00035463549
-0.0025384601
0.00022368487
-0.0025517115
0.00010176963
-0.0025941068
-1.7768159e-05
-0.0026684423
-0.00014122733
-0.0027779561
-0.00027697639
-0.0029270995
-0.00043485344
-0.0031211203
-0.00062907547
-0.0033649049
-0.00088152446
-0.0036596554
-0.0012277598
-0.0039940123
-0.0017276403
-0.0043231658
-0.0024797445
-0.0045274815
-0.0036248214
-0.004354309
-0.005278087
-0.0034423561
-0.0072037012
-0.0016463214
-0.0081457494
-0.0051622978
-0.0014335275
0.005057448
-0.0026384714
0.0071907564
-0.003165774
0.0064144267
-0.0032412828
0.0050643305
-0.0030695376
0.0038178508
-0.0027839769
0.0028326064
-0.0024674361
0.0021043781
-0.0021654922
0.0015781929
-0.0018982937
0.0011954233
-0.0016726646
0.00091205984
-0.0014891228
0.00069736279
-0.001345692
0.00053020209
-0.0012397925
0.00039589245
-0.0011692108
0.00028405385
-0.0011326165
0.00018709062
-0.0011298357
9.8988835e-05
-0.0011614273
1.3823402e-05
-0.0012309884
-7.1666176e-05
-0.0013424336
-0.0001655312
-0.0015027658
-0.00027452117
-0.0017220388
-0.0004098025
-0.0020139213
-0.00058964199
-0.0023952519
-0.00084642915
-0.0028819587
-0.0012409335
-0.0034709885
-0.0018907146
-0.0041023215
-0.0029934885
-0.0045323873
-0.0048480211
-0.0042291168
-0.0075069717
-0.0025021586
-0.0098727078
-0.0076644563
-0.0019209701
0.0069784181
-0.0025401255
0.0078099118
-0.0021853981
0.0060596994
-0.001470674
0.0043496064
-0.00069257589
0.0030397527
3.3960343e-05
0.0021060701
0.00066106987
0.0014772686
0.0011783695
0.0010608933
0.0015943057
0.00077948721
0.0019238684
0.00058249706
0.0021815358
0.00043969536
0.0023793363
0.0003324016
0.0025265206
0.0002487081
0.0026297544
0.00018082012
0.0026935007
0.00012334424
0.0027202119
7.2277616e-05
0.0027099007
2.4134617e-05
0.0026618006
-2.3566063e-05
0.0025711922
-7.4922853e-05
0.002430818
-0.00013414695
0.0022288914
-0.00020787597
0.0019467667
-0.00030751731
0.0015553131
-0.00045497555
0.0010103935
-0.00069601394
0.00024760489
-0.001127926
-0.00077890569
-0.0019669779
-0.0020523752
-0.0035745517
-0.0031469636
-0.0064123834
-0.0028950979
-0.010124574
-0.010559554
-0.0010142204
0.0079926385
0.00060479959
0.0061908919
0.0029602952
0.0037042038
0.0049443501
0.0023655515
0.0064862353
0.0014978674
0.0076567959
0.00093550954
0.0085330545
0.00060100988
0.00918748
0.00040646771
0.0096792621
0.00028770513
0.01005147
0.00021028873
0.010334251
0.00015691501
0.010548475
0.00011817696
0.010708526
8.8657445e-05
0.010824215
6.5131511e-05
0.010902032
4.5526456e-05
0.010945943
2.8366852e-05
0.010957543
1.2534757e-05
0.010937268
-3.2912375e-06
0.010882261
-1.9916195e-05
0.010786961
-3.8846289e-05
0.010641611
-6.2525956e-05
0.010429179
-9.5085775e-05
0.010119302
-0.00014509831
0.0096553379
-0.00023204995
0.0089300642
-0.00040265238
0.0077323438
-0.00076925755
0.0057384956
-0.0015807036
0.0027297837
-0.0034036715
-0.00019048764
-0.0072043022
-0.010750042
0.0079926385
0.01418353
0.017887734
0.020253286
0.021751153
0.022686663
0.023287672
0.02369414
0.023981845
0.024192134
0.024349049
0.024467226
0.024555883
0.024621015
0.024666541
0.024694908
0.024707443
0.024704152
0.024684235
0.024645389
0.024582863
0.024487777
0.024342679
0.024110629
0.023707977
0.022938719
0.021358016
0.017954344
0.010750042
)
;

boundaryField
{
    movingWall
    {
        type            calculated;
        value           uniform 0;
    }
    fixedWalls
    {
        type            calculated;
        value           uniform 0;
    }
    frontAndBack
    {
        type            empty;
        value           nonuniform List<scalar> 0();
    }
}


// ************************************************************************* //
