/*--------------------------------*- C++ -*----------------------------------*\
| =========                 |                                                 |
| \\      /  F ield         | OpenFOAM: The Open Source CFD Toolbox           |
|  \\    /   O peration     | Version:  2312                                  |
|   \\  /    A nd           | Website:  www.openfoam.com                      |
|    \\/     M anipulation  |                                                 |
\*---------------------------------------------------------------------------*/
FoamFile
{
    version     2.0;
    format      ascii;
    arch        "LSB;label=32;scalar=64";
    class       volVectorField;
    location    "0.2";
    object      U;
}
// * * * * * * * * * * * * * * * * * * * * * * * * * * * * * * * * * * * * * //

dimensions      [0 1 -1 0 0 0 0];

internalField   nonuniform List<vector> 
900
(
(-2.2231427e-05 2.2466327e-05 0)
(-0.00030445762 0.00016527342 0)
(-0.00089722569 0.00023795501 0)
(-0.0015750076 0.00025568654 0)
(-0.0022568454 0.00025097162 0)
(-0.0029136356 0.00023827916 0)
(-0.0035317362 0.00022203227 0)
(-0.0041027772 0.00020331488 0)
(-0.0046201236 0.0001823653 0)
(-0.0050778176 0.0001593255 0)
(-0.0054704944 0.0001343938 0)
(-0.005793476 0.00010781893 0)
(-0.0060428359 7.9877304e-05 0)
(-0.0062154327 5.0859992e-05 0)
(-0.006308933 2.1069142e-05 0)
(-0.0063218223 -9.1806954e-06 0)
(-0.0062534383 -3.9562027e-05 0)
(-0.006104019 -6.9731582e-05 0)
(-0.0058747051 -9.9332981e-05 0)
(-0.005567591 -0.00012799744 0)
(-0.0051857562 -0.00015534798 0)
(-0.0047332791 -0.00018101503 0)
(-0.0042152078 -0.00020466525 0)
(-0.0036374954 -0.00022600963 0)
(-0.0030071237 -0.00024464046 0)
(-0.0023332421 -0.00025925716 0)
(-0.0016308435 -0.00026513115 0)
(-0.00093116799 -0.00024733434 0)
(-0.00031855831 -0.00017272844 0)
(-2.4808356e-05 -2.5559745e-05 0)
(-0.00016482951 0.00030342033 0)
(-0.00088842246 0.00088495178 0)
(-0.0021321774 0.0011680453 0)
(-0.00352256 0.0012451847 0)
(-0.0049190447 0.001227809 0)
(-0.0062689091 0.0011701641 0)
(-0.0075423068 0.0010919879 0)
(-0.0087193474 0.00099964269 0)
(-0.0097849009 0.00089539381 0)
(-0.010726155 0.000780604 0)
(-0.011532006 0.00065657849 0)
(-0.012192992 0.00052469548 0)
(-0.012701312 0.00038639057 0)
(-0.013050827 0.00024313506 0)
(-0.013237082 9.6429647e-05 0)
(-0.013257307 -5.2185198e-05 0)
(-0.013110473 -0.00020111886 0)
(-0.012797354 -0.00034872484 0)
(-0.012320544 -0.00049329981 0)
(-0.011684542 -0.0006330779 0)
(-0.010895827 -0.00076624266 0)
(-0.0099629184 -0.00089096186 0)
(-0.0088964189 -0.0010054191 0)
(-0.0077091325 -0.0011076859 0)
(-0.0064167446 -0.0011948425 0)
(-0.0050403848 -0.0012596881 0)
(-0.0036119928 -0.0012812981 0)
(-0.0021875702 -0.0012037392 0)
(-0.00091284921 -0.00091355022 0)
(-0.00016999036 -0.00031631455 0)
(-0.00024273491 0.00090094337 0)
(-0.0012013477 0.0021364898 0)
(-0.0027761989 0.0027121375 0)
(-0.0045126811 0.0028740801 0)
(-0.0062483558 0.0028362732 0)
(-0.0079245101 0.0027063223 0)
(-0.0095054048 0.0025266079 0)
(-0.010966148 0.0023123103 0)
(-0.012287714 0.0020696065 0)
(-0.013454138 0.0018023044 0)
(-0.014451735 0.0015137746 0)
(-0.015268963 0.0012073775 0)
(-0.015896386 0.00088651473 0)
(-0.01632665 0.00055462233 0)
(-0.016554467 0.00021517388 0)
(-0.016576627 -0.00012829395 0)
(-0.01639201 -0.00047214744 0)
(-0.016001642 -0.00081264384 0)
(-0.015408769 -0.0011459123 0)
(-0.014618949 -0.0014679351 0)
(-0.013640155 -0.0017745589 0)
(-0.012482885 -0.0020615256 0)
(-0.011160265 -0.0023244481 0)
(-0.0096882375 -0.0025583885 0)
(-0.0080864316 -0.0027558628 0)
(-0.0063811017 -0.002900014 0)
(-0.0046102697 -0.002946084 0)
(-0.0028362845 -0.002783188 0)
(-0.0012275392 -0.002193663 0)
(-0.0002481531 -0.00092761091 0)
(-0.00027251296 0.0016085098 0)
(-0.0013422181 0.0035885604 0)
(-0.0030879527 0.0044802818 0)
(-0.0050003726 0.0047266969 0)
(-0.0069045914 0.0046603464 0)
(-0.0087403307 0.0044463232 0)
(-0.010470146 0.004150529 0)
(-0.012067401 0.0037973178 0)
(-0.013511573 0.0033971327 0)
(-0.014785434 0.0029565902 0)
(-0.015874276 0.0024814654 0)
(-0.016765766 0.0019774021 0)
(-0.017449875 0.0014500339 0)
(-0.017918817 0.00090499745 0)
(-0.018167008 0.00034795246 0)
(-0.018191059 -0.0002153735 0)
(-0.017989769 -0.00077912768 0)
(-0.017564163 -0.0013372781 0)
(-0.016917615 -0.001883566 0)
(-0.016055956 -0.0024114743 0)
(-0.014987613 -0.0029142307 0)
(-0.01372376 -0.0033848268 0)
(-0.012278463 -0.0038159343 0)
(-0.010668895 -0.0041992034 0)
(-0.0089162112 -0.0045221855 0)
(-0.0070485212 -0.0047579463 0)
(-0.00510576 -0.0048369106 0)
(-0.0031522598 -0.0045889527 0)
(-0.0013696897 -0.0036759118 0)
(-0.00027797257 -0.0016492281 0)
(-0.00028676133 0.0023637184 0)
(-0.001422913 0.0051401623 0)
(-0.003280695 0.0063625854 0)
(-0.0053111451 0.0066919488 0)
(-0.0073285801 0.0065910264 0)
(-0.009270677 0.0062856234 0)
(-0.011098813 0.0058656436 0)
(-0.012785436 0.005364653 0)
(-0.014309324 0.0047974362 0)
(-0.015652706 0.0041735523 0)
(-0.01680048 0.0035013272 0)
(-0.017740055 0.0027888123 0)
(-0.018461235 0.002043962 0)
(-0.018956118 0.0012746673 0)
(-0.019219014 0.00048879914 0)
(-0.019246413 -0.00030571873 0)
(-0.019036963 -0.0011008137 0)
(-0.018591512 -0.0018881546 0)
(-0.017913252 -0.0026590622 0)
(-0.017007858 -0.0034044521 0)
(-0.015883678 -0.0041148189 0)
(-0.01455194 -0.0047802426 0)
(-0.013026961 -0.005390258 0)
(-0.011326393 -0.0059329057 0)
(-0.0094721321 -0.0063906111 0)
(-0.0074933863 -0.0067261991 0)
(-0.0054316404 -0.0068446053 0)
(-0.0033539321 -0.0065129533 0)
(-0.0014538907 -0.0052606287 0)
(-0.00029278434 -0.0024193428 0)
(-0.00030003816 0.0031561175 0)
(-0.0014979475 0.0067772767 0)
(-0.0034615246 0.0083486409 0)
(-0.005606101 0.0087627254 0)
(-0.0077343827 0.0086226103 0)
(-0.00978076 0.0082188336 0)
(-0.011704917 0.0076665709 0)
(-0.01347831 0.0070090235 0)
(-0.015079142 0.0062655307 0)
(-0.016489313 0.0054487604 0)
(-0.017693576 0.0045697251 0)
(-0.018679318 0.0036389772 0)
(-0.019436384 0.0026668336 0)
(-0.019956911 0.0016634329 0)
(-0.020235195 0.00063881098 0)
(-0.020267613 -0.00039697938 0)
(-0.020052593 -0.0014337151 0)
(-0.019590661 -0.002460826 0)
(-0.018884598 -0.0034672434 0)
(-0.017939636 -0.0044412968 0)
(-0.016763711 -0.0053706646 0)
(-0.015367766 -0.0062423602 0)
(-0.013766038 -0.0070425596 0)
(-0.011976399 -0.0077554138 0)
(-0.010021371 -0.0083578595 0)
(-0.0079314133 -0.0088018489 0)
(-0.0057502499 -0.0089652557 0)
(-0.0035491403 -0.0085480098 0)
(-0.0015349265 -0.0069365442 0)
(-0.00030717877 -0.0032290404 0)
(-0.00031689415 0.0039909973 0)
(-0.0015875469 0.0085090404 0)
(-0.0036733372 0.010450524 0)
(-0.0059504648 0.010952757 0)
(-0.0082081226 0.01076893 0)
(-0.010376302 0.010258874 0)
(-0.012412351 0.0095648376 0)
(-0.014286445 0.0087404042 0)
(-0.015976155 0.0078098617 0)
(-0.017463134 0.0067892486 0)
(-0.01873214 0.0056924416 0)
(-0.019770727 0.0045325924 0)
(-0.020568958 0.0033224008 0)
(-0.021119158 0.0020742024 0)
(-0.021415695 0.00080009342 0)
(-0.021454856 -0.00048788189 0)
(-0.021234783 -0.0017774948 0)
(-0.020755528 -0.0030560668 0)
(-0.02001924 -0.0043102301 0)
(-0.019030423 -0.0055257486 0)
(-0.017796294 -0.0066874131 0)
(-0.016327194 -0.0077789923 0)
(-0.014637026 -0.0087830099 0)
(-0.012743736 -0.0096793085 0)
(-0.010670513 -0.010438728 0)
(-0.0084494348 -0.011001305 0)
(-0.0061272876 -0.011215628 0)
(-0.0037809807 -0.010709306 0)
(-0.0016330056 -0.0087154329 0)
(-0.00032566165 -0.0040849989 0)
(-0.00033857325 0.00487925 0)
(-0.0016987794 0.010354981 0)
(-0.0039325942 0.012691144 0)
(-0.0063698302 0.01328568 0)
(-0.0087835636 0.013052734 0)
(-0.011098345 0.012426692 0)
(-0.013268572 0.011579127 0)
(-0.015262858 0.010575037 0)
(-0.017058096 0.0094442364 0)
(-0.018635803 0.0082065109 0)
(-0.019980952 0.0068788419 0)
(-0.021081504 0.0054770963 0)
(-0.021927989 0.004016359 0)
(-0.022513117 0.0025110652 0)
(-0.022831463 0.00097519713 0)
(-0.022879265 -0.00057743142 0)
(-0.022654319 -0.002132824 0)
(-0.02215603 -0.003676413 0)
(-0.021385645 -0.0051926965 0)
(-0.020346594 -0.0066649456 0)
(-0.019044972 -0.0080750093 0)
(-0.01749012 -0.0094032035 0)
(-0.015695259 -0.010628017 0)
(-0.013678187 -0.011724402 0)
(-0.011462769 -0.012656236 0)
(-0.0090830471 -0.013350205 0)
(-0.0065896864 -0.01362278 0)
(-0.0040666795 -0.013023233 0)
(-0.0017554551 -0.010619681 0)
(-0.00034949688 -0.0049994834 0)
(-0.00036554437 0.0058339838 0)
(-0.0018349975 0.012340202 0)
(-0.0042477108 0.015099853 0)
(-0.0068775938 0.015791158 0)
(-0.0094783712 0.015502047 0)
(-0.011968031 0.01474772 0)
(-0.014297431 0.01373185 0)
(-0.016433396 0.012532184 0)
(-0.018352198 0.011184843 0)
(-0.020035448 0.0097138685 0)
(-0.021468669 0.008139658 0)
(-0.022640605 0.0064809277 0)
(-0.023542611 0.0047551209 0)
(-0.024168084 0.0029786109 0)
(-0.02451201 0.0011669992 0)
(-0.024570654 -0.00066446528 0)
(-0.024341409 -0.0025003786 0)
(-0.023822824 -0.0043246241 0)
(-0.0230149 -0.0061198372 0)
(-0.021919524 -0.0078669484 0)
(-0.020541119 -0.0095448498 0)
(-0.018887447 -0.011130177 0)
(-0.016970507 -0.012596909 0)
(-0.014807558 -0.013914337 0)
(-0.012422995 -0.015038221 0)
(-0.0098530918 -0.015880011 0)
(-0.0071532278 -0.016220506 0)
(-0.0044160978 -0.015523353 0)
(-0.0019062053 -0.012677812 0)
(-0.00037924567 -0.005987173 0)
(-0.00039830088 0.0068697222 0)
(-0.0019992557 0.014493505 0)
(-0.0046261042 0.017710335 0)
(-0.0074854716 0.018502828 0)
(-0.010307831 0.018148135 0)
(-0.013003312 0.017249825 0)
(-0.015518631 0.016047076 0)
(-0.0178187 0.014632091 0)
(-0.019879373 0.013048317 0)
(-0.021682775 0.011324712 0)
(-0.023215508 0.0094854728 0)
(-0.024467668 0.0075523066 0)
(-0.025431963 0.0055449411 0)
(-0.026102914 0.0034814319 0)
(-0.026476216 0.0013786046 0)
(-0.026548301 -0.00074734289 0)
(-0.026316099 -0.0028801254 0)
(-0.025777055 -0.0050025844 0)
(-0.02492947 -0.0070959185 0)
(-0.023773068 -0.0091389969 0)
(-0.022309833 -0.011107817 0)
(-0.020545107 -0.012975115 0)
(-0.01848885 -0.014709791 0)
(-0.016157099 -0.016274505 0)
(-0.013574406 -0.017615385 0)
(-0.010779412 -0.0186262 0)
(-0.0078330955 -0.019047592 0)
(-0.0048387967 -0.01824864 0)
(-0.0020891976 -0.014922918 0)
(-0.00041555997 -0.0070645276 0)
(-0.00043757279 0.0080027116 0)
(-0.0021954305 0.016847561 0)
(-0.0050766932 0.020560692 0)
(-0.0082072555 0.021458297 0)
(-0.011289658 0.021025345 0)
(-0.014224645 0.019962931 0)
(-0.016954181 0.018549964 0)
(-0.019441268 0.016895277 0)
(-0.02166178 0.015050952 0)
(-0.023599041 0.013051698 0)
(-0.02524154 0.010925973 0)
(-0.02658155 0.0086986051 0)
(-0.027613886 0.0063914514 0)
(-0.028334812 0.0040238591 0)
(-0.028741165 0.001613308 0)
(-0.028829752 -0.00082374597 0)
(-0.028597003 -0.0032708841 0)
(-0.028038951 -0.0057106424 0)
(-0.02715163 -0.0081234295 0)
(-0.02593177 -0.010486525 0)
(-0.024377874 -0.012773233 0)
(-0.02249167 -0.014952222 0)
(-0.020279857 -0.016986681 0)
(-0.017756157 -0.018831432 0)
(-0.014944537 -0.020421014 0)
(-0.011885933 -0.021628339 0)
(-0.0086478543 -0.022148184 0)
(-0.0053466699 -0.021243991 0)
(-0.0023095418 -0.017393186 0)
(-0.00045938813 -0.0082502676 0)
(-0.00048439575 0.0092515796 0)
(-0.0024287083 0.019439961 0)
(-0.0056110794 0.023694474 0)
(-0.0090605899 0.024699948 0)
(-0.012446182 0.02417158 0)
(-0.01565741 0.022919151 0)
(-0.018630892 0.021266573 0)
(-0.021327951 0.019342082 0)
(-0.023725244 0.017208085 0)
(-0.025808363 0.014906072 0)
(-0.027568871 0.012469286 0)
(-0.029002386 0.0099257685 0)
(-0.030106883 0.0072992215 0)
(-0.030881216 0.0046097043 0)
(-0.031323967 0.0018745452 0)
(-0.031432626 -0.00089050039 0)
(-0.031203118 -0.0036699199 0)
(-0.03062971 -0.0064469857 0)
(-0.029705457 -0.0092022692 0)
(-0.028423023 -0.011912216 0)
(-0.026776032 -0.01454787 0)
(-0.024760941 -0.017073796 0)
(-0.022379402 -0.019446815 0)
(-0.019641123 -0.021612456 0)
(-0.016568188 -0.02349117 0)
(-0.013203386 -0.024930852 0)
(-0.0096216817 -0.02557308 0)
(-0.005955409 -0.02456183 0)
(-0.0025741053 -0.020133426 0)
(-0.00051204812 -0.0095662368 0)
(-0.00054019403 0.01063819 0)
(-0.0027060688 0.022314753 0)
(-0.0062446453 0.027162221 0)
(-0.010068551 0.028276105 0)
(-0.013806174 0.027628939 0)
(-0.017333758 0.026152889 0)
(-0.020582085 0.024223508 0)
(-0.023511384 0.021992003 0)
(-0.026100368 0.019533235 0)
(-0.028338498 0.016896731 0)
(-0.030222115 0.014121084 0)
(-0.031751802 0.011237536 0)
(-0.032930111 0.0082711613 0)
(-0.033759633 0.0052418897 0)
(-0.034241501 0.0021657857 0)
(-0.034374335 -0.00094339862 0)
(-0.034153596 -0.0040724678 0)
(-0.033571395 -0.0072068698 0)
(-0.032616951 -0.010328704 0)
(-0.031277517 -0.013414748 0)
(-0.029540003 -0.016434583 0)
(-0.027393335 -0.019348899 0)
(-0.024831564 -0.02210756 0)
(-0.021857809 -0.024645124 0)
(-0.018490106 -0.026864784 0)
(-0.014772002 -0.028583974 0)
(-0.010786695 -0.029381509 0)
(-0.0066860893 -0.028264415 0)
(-0.0028921917 -0.023197269 0)
(-0.00057534049 -0.011038511 0)
(-0.00060692663 0.012188791 0)
(-0.0030369982 0.025524595 0)
(-0.0069980544 0.031023564 0)
(-0.011261714 0.032242531 0)
(-0.015407132 0.031444424 0)
(-0.019294807 0.029700799 0)
(-0.022849453 0.027447279 0)
(-0.026031402 0.024862622 0)
(-0.028823441 0.022036819 0)
(-0.031221269 0.019028893 0)
(-0.033228384 0.015883326 0)
(-0.034852534 0.012634364 0)
(-0.036102725 0.0093076923 0)
(-0.036986771 0.0059219194 0)
(-0.037509421 0.002490342 0)
(-0.037671032 -0.00097701763 0)
(-0.037466732 -0.0044711535 0)
(-0.036886076 -0.0079816296 0)
(-0.035913458 -0.011493985 0)
(-0.034529089 -0.014987063 0)
(-0.032710829 -0.018430345 0)
(-0.030437051 -0.021781342 0)
(-0.027690627 -0.024982635 0)
(-0.024464245 -0.027955999 0)
(-0.020768378 -0.030583436 0)
(-0.016645106 -0.032644781 0)
(-0.012186188 -0.033643455 0)
(-0.0075674604 -0.032427039 0)
(-0.0032765683 -0.026650265 0)
(-0.00065173875 -0.01269891 0)
(-0.00068733064 0.013935641 0)
(-0.0034346007 0.029133778 0)
(-0.0078994958 0.035350105 0)
(-0.012681132 0.036664355 0)
(-0.017298465 0.035670695 0)
(-0.021593571 0.033601461 0)
(-0.025485451 0.030963169 0)
(-0.028936729 0.027967978 0)
(-0.031937415 0.024724286 0)
(-0.034492867 0.021302221 0)
(-0.036617028 0.017752542 0)
(-0.038327716 0.014111981 0)
(-0.039642804 0.010405646 0)
(-0.040577214 0.0066491692 0)
(-0.041140657 0.0028510894 0)
(-0.041336037 -0.00098453519 0)
(-0.041158406 -0.0048553071 0)
(-0.04059441 -0.0087574571 0)
(-0.039622563 -0.012682567 0)
(-0.038214128 -0.016614067 0)
(-0.036335057 -0.020523529 0)
(-0.033949245 -0.024366781 0)
(-0.031023455 -0.028079384 0)
(-0.027534306 -0.031568622 0)
(-0.023479113 -0.034690615 0)
(-0.018894317 -0.037178277 0)
(-0.013879476 -0.038442749 0)
(-0.0086394703 -0.037142579 0)
(-0.0037450777 -0.030574372 0)
(-0.00074468168 -0.014587197 0)
(-0.00078532337 0.015919384 0)
(-0.0039173632 0.033222588 0)
(-0.008988127 0.040229404 0)
(-0.014382769 0.041618516 0)
(-0.019546048 0.040366727 0)
(-0.024298994 0.037894535 0)
(-0.028556414 0.034793324 0)
(-0.03228705 0.031316069 0)
(-0.035492955 0.027593434 0)
(-0.038194026 0.023708246 0)
(-0.040419088 0.019717557 0)
(-0.042199779 0.01565951 0)
(-0.043565851 0.011556842 0)
(-0.044541625 0.0074199512 0)
(-0.045143412 0.0032500423 0)
(-0.045377705 -0.0009576026 0)
(-0.045239925 -0.0052102268 0)
(-0.044713595 -0.009513982 0)
(-0.043770325 -0.013869943 0)
(-0.042370392 -0.018269671 0)
(-0.040464482 -0.022690225 0)
(-0.037997101 -0.027088534 0)
(-0.034912283 -0.031394562 0)
(-0.031162458 -0.03550003 0)
(-0.026722997 -0.039229931 0)
(-0.021617211 -0.042258276 0)
(-0.015949358 -0.043881091 0)
(-0.0099588641 -0.042528014 0)
(-0.0043232647 -0.035074642 0)
(-0.00085906252 -0.016754312 0)
(-0.00090669036 0.018192671 0)
(-0.0045120341 0.037893724 0)
(-0.010319474 0.045770518 0)
(-0.016444149 0.047196768 0)
(-0.022238772 0.045598146 0)
(-0.027501454 0.04261898 0)
(-0.03214657 0.038953645 0)
(-0.036155459 0.034905136 0)
(-0.039549479 0.030630645 0)
(-0.042369914 0.026226908 0)
(-0.044666319 0.021756519 0)
(-0.046488856 0.017257075 0)
(-0.047882752 0.012746287 0)
(-0.048884388 0.0082262931 0)
(-0.049518576 0.0036877245 0)
(-0.049796664 -0.00088634102 0)
(-0.049715144 -0.0055164504 0)
(-0.049254479 -0.01022268 0)
(-0.048378609 -0.015020021 0)
(-0.047034871 -0.019913009 0)
(-0.045155069 -0.024889254 0)
(-0.042658467 -0.029911576 0)
(-0.039457791 -0.034907864 0)
(-0.035469826 -0.039754854 0)
(-0.030634455 -0.044241324 0)
(-0.024948759 -0.047967448 0)
(-0.018513855 -0.050083107 0)
(-0.011608374 -0.048733825 0)
(-0.0050488226 -0.040289366 0)
(-0.0010020886 -0.019267316 0)
(-0.0010603267 0.020825829 0)
(-0.0052584986 0.043281959 0)
(-0.0119741 0.052111748 0)
(-0.018974522 0.05350921 0)
(-0.025497996 0.051436701 0)
(-0.031320242 0.047809638 0)
(-0.036363086 0.043448802 0)
(-0.040631163 0.038718182 0)
(-0.044175934 0.033805639 0)
(-0.047069467 0.02882196 0)
(-0.049389546 0.023833128 0)
(-0.051210488 0.018872853 0)
(-0.052597068 0.013949985 0)
(-0.053600607 0.0090544401 0)
(-0.05425646 0.0041623192 0)
(-0.054582292 -0.00075951102 0)
(-0.054576688 -0.0057491293 0)
(-0.054217595 -0.010845235 0)
(-0.053461106 -0.016082185 0)
(-0.052240211 -0.021483861 0)
(-0.05046444 -0.027055706 0)
(-0.048021415 -0.032774194 0)
(-0.044781985 -0.038572233 0)
(-0.04061166 -0.044315629 0)
(-0.03539436 -0.04975374 0)
(-0.029078566 -0.054395426 0)
(-0.021745081 -0.057202448 0)
(-0.0137123 -0.055957812 0)
(-0.0059794731 -0.046406053 0)
(-0.0011848731 -0.022217365 0)
(-0.0012606154 0.023916194 0)
(-0.0062183624 0.049568993 0)
(-0.014071833 0.059431382 0)
(-0.022130478 0.060687944 0)
(-0.029491124 0.057957841 0)
(-0.035913461 0.053490995 0)
(-0.041342039 0.048264326 0)
(-0.045822065 0.042714982 0)
(-0.049450814 0.037064323 0)
(-0.052343682 0.031435057 0)
(-0.054615896 0.02589202 0)
(-0.056372289 0.020459623 0)
(-0.057701395 0.01513244 0)
(-0.058672257 0.0098831081 0)
(-0.059332719 0.0046685509 0)
(-0.059708306 -0.00056500968 0)
(-0.059801093 -0.0058777596 0)
(-0.059587788 -0.011332187 0)
(-0.059017543 -0.016988353 0)
(-0.058008892 -0.022897492 0)
(-0.056446871 -0.02909291 0)
(-0.05418149 -0.03557668 0)
(-0.051029797 -0.042299523 0)
(-0.046785731 -0.049127015 0)
(-0.04124725 -0.055771363 0)
(-0.034276923 -0.061632387 0)
(-0.02590023 -0.065428185 0)
(-0.016463922 -0.064465603 0)
(-0.0072078162 -0.053687561 0)
(-0.0014257089 -0.025733314 0)
(-0.0015322665 0.027604195 0)
(-0.0074906771 0.057006713 0)
(-0.016795562 0.067962268 0)
(-0.026139998 0.068889684 0)
(-0.034450712 0.065234362 0)
(-0.041490465 0.05966609 0)
(-0.047254592 0.053354236 0)
(-0.051856053 0.046820595 0)
(-0.055460136 0.04031925 0)
(-0.058241654 0.033978417 0)
(-0.060363902 0.027853407 0)
(-0.06196871 0.021950971 0)
(-0.063172086 0.016243979 0)
(-0.064062905 0.010681562 0)
(-0.064702921 0.0051962751 0)
(-0.06512692 -0.00029084396 0)
(-0.065342229 -0.0058665454 0)
(-0.065326619 -0.011622255 0)
(-0.065024956 -0.017650527 0)
(-0.064343602 -0.024039368 0)
(-0.063143668 -0.030862993 0)
(-0.061234026 -0.038166461 0)
(-0.0583666 -0.045939676 0)
(-0.054239638 -0.054070329 0)
(-0.048523275 -0.062248204 0)
(-0.040933856 -0.06975264 0)
(-0.031373438 -0.074988656 0)
(-0.020175712 -0.074620635 0)
(-0.0088911834 -0.062516193 0)
(-0.0017574808 -0.030006633 0)
(-0.0019206413 0.032102644 0)
(-0.0092416347 0.065954046 0)
(-0.020431136 0.078010327 0)
(-0.031338491 0.078294223 0)
(-0.040699455 0.073322199 0)
(-0.048324871 0.066297248 0)
(-0.054310113 0.058621931 0)
(-0.058877223 0.050909172 0)
(-0.062289589 0.043437234 0)
(-0.064800755 0.036326044 0)
(-0.066633074 0.029607215 0)
(-0.067970748 0.023257487 0)
(-0.068959324 0.017218225 0)
(-0.069708047 0.011407725 0)
(-0.070292844 0.0057287983 0)
(-0.070758599 7.3196039e-05 0)
(-0.071119944 -0.0056758508 0)
(-0.071359275 -0.011643112 0)
(-0.071422315 -0.017959902 0)
(-0.071209398 -0.024760954 0)
(-0.070563495 -0.032177052 0)
(-0.069254845 -0.040319846 0)
(-0.066964021 -0.049251562 0)
(-0.06326967 -0.058923287 0)
(-0.057660648 -0.069041985 0)
(-0.049614304 -0.078776677 0)
(-0.0387822 -0.086143782 0)
(-0.025373916 -0.086924171 0)
(-0.011315261 -0.073467712 0)
(-0.0022457719 -0.035339109 0)
(-0.0025142171 0.037752663 0)
(-0.011760868 0.07693473 0)
(-0.02543182 0.089974027 0)
(-0.038217215 0.089091205 0)
(-0.048674686 0.082230824 0)
(-0.056757534 0.073272993 0)
(-0.062743482 0.063890951 0)
(-0.067023476 0.054781444 0)
(-0.069997096 0.046223719 0)
(-0.072017308 0.038303795 0)
(-0.073374455 0.031007226 0)
(-0.074297141 0.024263448 0)
(-0.074959095 0.017970062 0)
(-0.075487589 0.012006503 0)
(-0.075970912 0.0062409999 0)
(-0.076463599 0.0005332744 0)
(-0.076989782 -0.0052653514 0)
(-0.077541455 -0.011314787 0)
(-0.078073249 -0.017789286 0)
(-0.078491104 -0.024878943 0)
(-0.078634067 -0.032787526 0)
(-0.078247898 -0.04172222 0)
(-0.076949283 -0.051864697 0)
(-0.074184379 -0.063298579 0)
(-0.069204286 -0.07583264 0)
(-0.061116977 -0.088589501 0)
(-0.049098832 -0.099144836 0)
(-0.032973082 -0.10206214 0)
(-0.015033917 -0.08744024 0)
(-0.0030355478 -0.042243958 0)
(-0.0034924814 0.045134167 0)
(-0.015563183 0.090722652 0)
(-0.032507609 0.10435077 0)
(-0.047463158 0.10143642 0)
(-0.058916601 0.091862813 0)
(-0.067145124 0.080350994 0)
(-0.072737748 0.068860014 0)
(-0.076334487 0.058133462 0)
(-0.078513806 0.048403242 0)
(-0.079745108 0.039678406 0)
(-0.080388897 0.031865594 0)
(-0.080713162 0.024824296 0)
(-0.0809124 0.018394191 0)
(-0.081124853 0.012408105 0)
(-0.081446059 0.0066964633 0)
(-0.08193814 0.0010867089 0)
(-0.08263618 -0.0046003559 0)
(-0.083547206 -0.01055763 0)
(-0.084646139 -0.017001865 0)
(-0.085862582 -0.024182367 0)
(-0.087057469 -0.03238863 0)
(-0.087985155 -0.041952995 0)
(-0.088233553 -0.053235456 0)
(-0.08713719 -0.066556019 0)
(-0.083678811 -0.081982733 0)
(-0.076446793 -0.098770728 0)
(-0.063781067 -0.11411034 0)
(-0.044557193 -0.12094555 0)
(-0.021165574 -0.10590905 0)
(-0.0044690417 -0.051706584 0)
(-0.0052202702 0.055283757 0)
(-0.021545493 0.10844751 0)
(-0.042685296 0.12168461 0)
(-0.059880298 0.11533239 0)
(-0.071875993 0.10189035 0)
(-0.079590957 0.087057257 0)
(-0.08410813 0.073031406 0)
(-0.086409899 0.060510995 0)
(-0.087289325 0.049593195 0)
(-0.087334523 0.040143893 0)
(-0.086963091 0.03194647 0)
(-0.086464572 0.024763616 0)
(-0.086037017 0.018362857 0)
(-0.085815568 0.012524793 0)
(-0.085893104 0.0070421275 0)
(-0.086333927 0.0017137397 0)
(-0.087183921 -0.0036639226 0)
(-0.088470432 -0.0093088914 0)
(-0.090200693 -0.015472487 0)
(-0.092351243 -0.022457132 0)
(-0.09484295 -0.030639026 0)
(-0.097496399 -0.040494314 0)
(-0.09995017 -0.052618277 0)
(-0.10151895 -0.067698322 0)
(-0.10097938 -0.086313745 0)
(-0.096317356 -0.10823964 0)
(-0.084568178 -0.13063895 0)
(-0.06260772 -0.14455319 0)
(-0.031907027 -0.1312725 0)
(-0.0073464937 -0.065777146 0)
(-0.0083961914 0.070086299 0)
(-0.03111683 0.13164588 0)
(-0.057071306 0.14233233 0)
(-0.075786326 0.13033246 0)
(-0.08706012 0.11150161 0)
(-0.092937003 0.092500689 0)
(-0.095204758 0.075588419 0)
(-0.095262862 0.06123496 0)
(-0.094118715 0.049261337 0)
(-0.09244437 0.039298274 0)
(-0.090671376 0.030952849 0)
(-0.089071162 0.023864263 0)
(-0.087813102 0.017717625 0)
(-0.087004967 0.012240998 0)
(-0.086720078 0.0071951043 0)
(-0.087014471 0.0023595037 0)
(-0.08793942 -0.0024823633 0)
(-0.089545832 -0.0075576417 0)
(-0.091880905 -0.013135435 0)
(-0.094989544 -0.019549567 0)
(-0.098895059 -0.027241254 0)
(-0.10356022 -0.036818232 0)
(-0.1088014 -0.049132782 0)
(-0.11410889 -0.065352856 0)
(-0.11830999 -0.086886893 0)
(-0.11899119 -0.11469641 0)
(-0.1116011 -0.14689348 0)
(-0.089535863 -0.17299028 0)
(-0.050797874 -0.16660947 0)
(-0.013344019 -0.088233348 0)
(-0.014130205 0.092812471 0)
(-0.045823574 0.16185592 0)
(-0.075393151 0.16566929 0)
(-0.09269255 0.14480881 0)
(-0.10020522 0.11885514 0)
(-0.10166178 0.095007491 0)
(-0.099670088 0.075168612 0)
(-0.096010975 0.059269745 0)
(-0.091804446 0.04665199 0)
(-0.087691302 0.036601836 0)
(-0.084018589 0.028500802 0)
(-0.08096453 0.021849125 0)
(-0.078615542 0.016251243 0)
(-0.077013684 0.011392851 0)
(-0.076186197 0.0070169225 0)
(-0.076162422 0.0028997527 0)
(-0.076982051 -0.0011704654 0)
(-0.0787167 -0.0054091651 0)
(-0.08145015 -0.010076223 0)
(-0.085299617 -0.015498002 0)
(-0.090415176 -0.022129681 0)
(-0.096962132 -0.030648074 0)
(-0.10506507 -0.042102646 0)
(-0.11465304 -0.058146459 0)
(-0.12509104 -0.081264629 0)
(-0.1343363 -0.11443383 0)
(-0.1369019 -0.15859093 0)
(-0.12197573 -0.20374481 0)
(-0.080085032 -0.21447892 0)
(-0.024997715 -0.12512092 0)
(-0.023329602 0.12867767 0)
(-0.064810526 0.19825111 0)
(-0.090776067 0.1874683 0)
(-0.098517253 0.15404577 0)
(-0.095808561 0.11987659 0)
(-0.08819298 0.091424787 0)
(-0.078752677 0.06950064 0)
(-0.069280477 0.053055814 0)
(-0.060672098 0.040719726 0)
(-0.053267437 0.031356234 0)
(-0.047141763 0.024115437 0)
(-0.042256482 0.018380366 0)
(-0.038535088 0.013704204 0)
(-0.035901333 0.0097592035 0)
(-0.034300638 0.0062965197 0)
(-0.033708812 0.00311379 0)
(-0.034127639 2.8851434e-05 0)
(-0.035625008 -0.0031535939 0)
(-0.038304857 -0.006636936 0)
(-0.042329546 -0.010694712 0)
(-0.047951734 -0.015725648 0)
(-0.055527188 -0.022363935 0)
(-0.065523182 -0.031689281 0)
(-0.078482313 -0.045632694 0)
(-0.094800335 -0.067645413 0)
(-0.11411328 -0.10312394 0)
(-0.13229754 -0.15822207 0)
(-0.13712152 -0.22856073 0)
(-0.11039068 -0.27443993 0)
(-0.042933146 -0.18926594 0)
(-0.033141332 0.18534135 0)
(-0.075688404 0.23089537 0)
(-0.075255758 0.19351793 0)
(-0.056044146 0.14659822 0)
(-0.032291129 0.10662906 0)
(-0.0092291581 0.076555822 0)
(0.011225141 0.055352877 0)
(0.028357008 0.040653638 0)
(0.04224155 0.030319524 0)
(0.053311935 0.02287749 0)
(0.062027726 0.017369418 0)
(0.068786964 0.013164942 0)
(0.073906478 0.0098441504 0)
(0.0776243 0.0071219033 0)
(0.08010541 0.0047959307 0)
(0.08145016 0.0027125535 0)
(0.081696964 0.0007414687 0)
(0.080839109 -0.0012555172 0)
(0.078792001 -0.0034108537 0)
(0.075383352 -0.005905594 0)
(0.070335112 -0.0090143734 0)
(0.063207008 -0.013200451 0)
(0.053311222 -0.0193266 0)
(0.039565959 -0.029115959 0)
(0.020483016 -0.046096509 0)
(-0.0063966206 -0.077152889 0)
(-0.041573015 -0.13341539 0)
(-0.079577984 -0.22369308 0)
(-0.10539918 -0.32445731 0)
(-0.056455862 -0.2940984 0)
(-0.015713054 0.25396559 0)
(-0.022978332 0.2318696 0)
(0.052025146 0.157961 0)
(0.12154817 0.10663701 0)
(0.17452842 0.070837478 0)
(0.21445638 0.046500463 0)
(0.24459232 0.031128641 0)
(0.26712282 0.021636756 0)
(0.28396318 0.015564501 0)
(0.29666649 0.011476325 0)
(0.30631827 0.00859831 0)
(0.31365536 0.0064849776 0)
(0.3191877 0.0048660339 0)
(0.32326809 0.0035730526 0)
(0.32613477 0.0024945993 0)
(0.32793935 0.0015503617 0)
(0.32876293 0.00067632845 0)
(0.32863884 -0.00017951604 0)
(0.32753196 -0.0010862996 0)
(0.32531953 -0.0021244922 0)
(0.3217805 -0.0034136796 0)
(0.31653256 -0.0051709341 0)
(0.30890394 -0.0078351318 0)
(0.29766158 -0.012379003 0)
(0.28044258 -0.021058854 0)
(0.25268723 -0.039231716 0)
(0.20751988 -0.077603342 0)
(0.13418234 -0.1554181 0)
(0.015118294 -0.28746432 0)
(-0.0082815919 -0.36046056 0)
(0.23933075 0.14969525 0)
(0.3354528 0.13258737 0)
(0.47680253 0.080056017 0)
(0.57872923 0.046508472 0)
(0.63589789 0.027042614 0)
(0.66948862 0.015553415 0)
(0.69121452 0.0091019345 0)
(0.70577602 0.0056462454 0)
(0.71582433 0.0037578512 0)
(0.72305664 0.0026469089 0)
(0.72842973 0.0019366623 0)
(0.73247623 0.0014476025 0)
(0.73552641 0.0010885239 0)
(0.7377982 0.00081023288 0)
(0.73943529 0.00058374801 0)
(0.74052998 0.00038963882 0)
(0.74113629 0.00021359512 0)
(0.74127566 4.7735309e-05 0)
(0.74093445 -0.0001229951 0)
(0.74006901 -0.00031676961 0)
(0.73857938 -0.00055561594 0)
(0.73627134 -0.00088359877 0)
(0.7327748 -0.0013956953 0)
(0.72733278 -0.0023184951 0)
(0.7182684 -0.0042247135 0)
(0.70173118 -0.0085972909 0)
(0.6689828 -0.019060701 0)
(0.59604899 -0.045241761 0)
(0.43710111 -0.10789855 0)
(0.33478594 -0.17510898 0)
)
;

boundaryField
{
    movingWall
    {
        type            fixedValue;
        value           uniform (1 0 0);
    }
    fixedWalls
    {
        type            noSlip;
    }
    frontAndBack
    {
        type            empty;
    }
}


// ************************************************************************* //
