/*--------------------------------*- C++ -*----------------------------------*\
| =========                 |                                                 |
| \\      /  F ield         | OpenFOAM: The Open Source CFD Toolbox           |
|  \\    /   O peration     | Version:  2312                                  |
|   \\  /    A nd           | Website:  www.openfoam.com                      |
|    \\/     M anipulation  |                                                 |
\*---------------------------------------------------------------------------*/
FoamFile
{
    version     2.0;
    format      ascii;
    arch        "LSB;label=32;scalar=64";
    class       volScalarField;
    location    "0.1";
    object      p;
}
// * * * * * * * * * * * * * * * * * * * * * * * * * * * * * * * * * * * * * //

dimensions      [0 2 -2 0 0 0 0];

internalField   nonuniform List<scalar> 
900
(
-4.2873769e-09
-0.0001466377
2.8291606e-05
0.00051340788
0.0012893807
0.0023436722
0.0036613135
0.005224216
0.0070115885
0.0090000607
0.011163872
0.013475152
0.015904237
0.018420022
0.020990311
0.023582185
0.026162355
0.028697476
0.031154484
0.033500964
0.035705549
0.037738367
0.039571462
0.041179179
0.042538464
0.043629105
0.044434286
0.044940022
0.045126064
0.044981442
0.00014617089
-4.0329815e-06
0.00018494808
0.00067565623
0.0014474847
0.0024929628
0.0037992702
0.0053490506
0.0071219057
0.0090947375
0.011242003
0.013536024
0.01594732
0.018444965
0.02099695
0.023570533
0.026132591
0.028649947
0.031089695
0.03341957
0.035608364
0.037626374
0.039445829
0.0410413
0.042390069
0.043472602
0.044274211
0.044785971
0.044986244
0.044837883
-2.4859119e-05
-0.00019870421
-1.0376782e-05
0.00048572883
0.0012641408
0.0023180031
0.0036347818
0.0051971052
0.0069844852
0.0089736711
0.011138919
0.013452326
0.015884173
0.018403293
0.02097744
0.023573627
0.026158456
0.028698456
0.031160425
0.033511777
0.035720974
0.037757988
0.039594739
0.041205502
0.042567304
0.043660448
0.044470425
0.044988839
0.045189022
0.045016802
-0.00050824028
-0.00070122746
-0.00051356604
-7.6992086e-06
0.00078741602
0.001864343
0.0032101083
0.0048068585
0.0066336053
0.0086665592
0.010879402
0.013243636
0.015728943
0.018303556
0.020934624
0.023588548
0.026231292
0.02882871
0.031346889
0.033752518
0.036013317
0.038098494
0.039979182
0.041628878
0.043023869
0.044143756
0.044973397
0.045503648
0.045704209
0.045512836
-0.0012987019
-0.0015053538
-0.0013141892
-0.0007919393
3.0308821e-05
0.0011444957
0.0025369429
0.0041889857
0.0060787748
0.0081816167
0.01047026
0.012915262
0.015485362
0.018147855
0.02086895
0.023614091
0.026348258
0.029036277
0.031643158
0.034134471
0.036476783
0.038638106
0.040588338
0.042299732
0.043747373
0.044909738
0.045770702
0.046320271
0.046525827
0.046320856
-0.002405248
-0.0026251463
-0.002426794
-0.00188076
-0.0010200992
0.00014643895
0.0016042315
0.0033334721
0.0053110856
0.0075110968
0.0099049461
0.012461882
0.015149351
0.017933371
0.020778875
0.023650015
0.026510444
0.029323605
0.032053067
0.034662895
0.037118078
0.03938497
0.041431752
0.04322895
0.044749972
0.045971721
0.046876734
0.04745403
0.047668784
0.047450669
-0.0038422623
-0.0040771788
-0.0038681712
-0.0032903871
-0.0023791934
-0.0011441855
0.00039878782
0.0022284133
0.0043199896
0.0066458535
0.0091757396
0.011877209
0.014716057
0.017656686
0.020662423
0.023695808
0.02671884
0.029693246
0.032580795
0.035343655
0.037944798
0.040348444
0.042520544
0.044429367
0.046046108
0.047345574
0.048308543
0.048922782
0.049150858
0.048917862
-0.0056289022
-0.0058814447
-0.0056582371
-0.0050401064
-0.0040652772
-0.0027444269
-0.0010949849
0.00085979675
0.0030931345
0.0055752241
0.0082736642
0.01115393
0.014179805
0.017313742
0.020517158
0.023750678
0.026974354
0.030147889
0.033230917
0.036183322
0.038965613
0.041539364
0.043867741
0.045916157
0.047652965
0.049050253
0.050086504
0.050747847
0.050993607
0.050743162
-0.0077896559
-0.0080629913
-0.0078218166
-0.0071539176
-0.0061010702
-0.0046753721
-0.0028962902
-0.00078954522
0.0016154585
0.0042862599
0.007187849
0.010283197
0.013533711
0.016899581
0.020340036
0.023813533
0.02727792
0.030690613
0.034008805
0.037189728
0.040190972
0.042970924
0.045489336
0.047708067
0.049591872
0.051109358
0.052236035
0.052955861
0.053224081
0.052953073
-0.010354698
-0.010652516
-0.010389214
-0.0096610124
-0.0085140933
-0.0069624418
-0.0050281559
-0.0027400856
-0.00013090364
0.0027636748
0.0059055066
0.0092546177
0.012769677
0.016408325
0.020127371
0.023882909
0.027630399
0.031324758
0.034920486
0.038371819
0.041632979
0.044658586
0.047404272
0.04982751
0.051888541
0.053551542
0.054788164
0.055579484
0.055875592
0.05558039
-0.013360462
-0.013687043
-0.01339688
-0.012596364
-0.011337154
-0.0096357558
-0.0075176771
-0.0050157308
-0.0021666516
0.00098988683
0.004412017
0.0080563502
0.011878466
0.015833207
0.019874803
0.023956874
0.028032399
0.032053678
0.035972335
0.039739321
0.04330506
0.046619802
0.049634265
0.052300557
0.054573269
0.056410928
0.057780158
0.05865817
0.058988542
0.05866491
-0.016850514
-0.017210894
-0.016888349
-0.016001551
-0.014608996
-0.012730588
-0.010396275
-0.0076439068
-0.0045152709
-0.0010548485
0.0026910947
0.00667526
0.01084981
0.015166607
0.019577234
0.024032853
0.028484002
0.032880382
0.037170663
0.041302317
0.045221586
0.048873737
0.052203695
0.055157039
0.057681295
0.059727746
0.061256391
0.062239205
0.062611502
0.062254447
-0.020876748
-0.021276948
-0.020915412
-0.019925723
-0.018375006
-0.016287791
-0.013699872
-0.010655534
-0.0072028724
-0.003392205
0.00072503433
0.005097127
0.009672543
0.014400083
0.019228757
0.024107444
0.028984471
0.033807135
0.038521259
0.043070771
0.047397438
0.051440955
0.055139481
0.058430686
0.061253245
0.063549104
0.065269466
0.066379107
0.066802723
0.066406263
-0.025500935
-0.025948258
-0.025539577
-0.024426763
-0.022688016
-0.02035425
-0.017469031
-0.014084935
-0.010257945
-0.0060454524
-0.0015049277
0.0033069834
0.0083348698
0.013524536
0.018822678
0.024176293
0.029531954
0.034835015
0.040028802
0.045053852
0.049847325
0.054342811
0.058470664
0.062159014
0.065335451
0.067929817
0.069881543
0.071145405
0.071632162
0.071188982
-0.030796792
-0.031300221
-0.030834002
-0.029572806
-0.02760934
-0.024983439
-0.021749099
-0.01796964
-0.013710921
-0.0090388838
-0.0040179899
0.0012897088
0.0068248541
0.012530526
0.018351624
0.024233944
0.030123089
0.035963254
0.041695972
0.047258866
0.052584618
0.057600326
0.062227487
0.066382818
0.069980042
0.072933274
0.075166024
0.076618984
0.077184193
0.076685179
-0.036852859
-0.037423632
-0.03688622
-0.035444334
-0.033210132
-0.030236056
-0.02659021
-0.022349896
-0.017593365
-0.012396842
-0.0068328016
-0.00096909176
0.0051311087
0.011408708
0.017807662
0.02427364
0.03075246
0.03718838
0.043522282
0.049689821
0.055619735
0.061232558
0.066439988
0.071145271
0.075244889
0.078632461
0.081209772
0.082897347
0.083561404
0.082994956
-0.043776655
-0.044429115
-0.043801987
-0.042136962
-0.039572985
-0.036180531
-0.032046915
-0.027267696
-0.021936655
-0.016142293
-0.0099661052
-0.0034819261
0.0032436872
0.010150399
0.017182525
0.024287143
0.031411994
0.038503163
0.045502608
0.052345558
0.058957976
0.065254309
0.07113588
0.07649041
0.081193154
0.085111029
0.088115945
0.090099115
0.090890024
0.090241033
-0.051700767
-0.052453532
-0.051710594
-0.049765006
-0.046793696
-0.042893251
-0.038177287
-0.032765191
-0.026770059
-0.02029484
-0.013430878
-0.0062578208
0.0011553258
0.0087484265
0.016467994
0.024264631
0.0320903
0.039895344
0.047625262
0.055217229
0.062596487
0.069672787
0.076337274
0.082460441
0.087891893
0.092463972
0.096007373
0.098370158
0.099327785
0.098576131
-0.060791971
-0.061669415
-0.060772288
-0.058466055
-0.054983161
-0.05045833
-0.045041249
-0.038882188
-0.032117901
-0.024867893
-0.017233749
-0.009300125
-0.0011368487
0.0071982931
0.015656503
0.024194681
0.032771991
0.041346212
0.049869738
0.058285133
0.066520234
0.074482892
0.082055662
0.089091144
0.095408975
0.10079743
0.10503051
0.10789217
0.10907559
0.10819402
-0.071265435
-0.072299302
-0.071188901
-0.0684069
-0.064269226
-0.058966467
-0.052697527
-0.045652159
-0.037995343
-0.029864689
-0.021371506
-0.012603611
-0.0036290471
0.0054998073
0.014742126
0.024064571
0.033437194
0.042829199
0.052204229
0.061514976
0.070696867
0.079660717
0.088284427
0.096404299
0.10380704
0.11022646
0.11535959
0.11889466
0.12039545
0.1193468
-0.083408197
-0.084638358
-0.083219297
-0.079790962
-0.074797812
-0.068511884
-0.061198304
-0.053096059
-0.044402321
-0.035272868
-0.025826518
-0.016150784
-0.0063079487
0.0036591659
0.013721889
0.023860836
0.034061278
0.044308569
0.054582974
0.064853498
0.07507024
0.085154724
0.094987845
0.10439546
0.11313226
0.12086849
0.12719951
0.13167155
0.13363898
0.13237382
-0.0976205
-0.099091038
-0.097201571
-0.092866771
-0.086731877
-0.079185766
-0.070580255
-0.061213036
-0.051315047
-0.041057299
-0.030560993
-0.019907478
-0.0091474203
0.0016913701
0.01259744
0.023570177
0.034614895
0.045738363
0.056943666
0.068223722
0.079552713
0.090874324
0.10208555
0.11301496
0.12339433
0.13282787
0.14078398
0.14660313
0.14929431
0.14775322
-0.11449336
-0.11623147
-0.11358414
-0.10793607
-0.10024563
-0.091063657
-0.080850029
-0.069966774
-0.058674527
-0.04715104
-0.03551016
-0.023817797
-0.012104837
-0.00037712885
0.011376993
0.023180883
0.035064765
0.047062188
0.059205652
0.071520587
0.08401689
0.096676072
0.10943159
0.12213911
0.13453198
0.14616278
0.15635921
0.16417792
0.16805601
0.16619283
-0.1349669
-0.13690377
-0.13296569
-0.12535681
-0.11550852
-0.10418232
-0.091961141
-0.079265854
-0.066371323
-0.053444231
-0.040574548
-0.027798887
-0.01511743
-0.0025057034
0.010077538
0.022684791
0.035375413
0.048214407
0.06126983
0.074608283
0.088288287
0.10234864
0.11678788
0.13152866
0.14635584
0.16082042
0.17413407
0.18499921
0.19092987
0.18882207
-0.16068682
-0.16239081
-0.15613299
-0.1455255
-0.13264652
-0.11849729
-0.10377703
-0.088935546
-0.074225858
-0.059771199
-0.045611853
-0.031735869
-0.018099028
-0.0046371442
0.0087270386
0.022079901
0.0355121
0.049123343
0.063021507
0.077321227
0.092141561
0.10759942
0.12379384
0.14077196
0.15845715
0.17651454
0.19416364
0.20978995
0.21954533
0.21784566
-0.1948248
-0.19471291
-0.18408474
-0.16882034
-0.15166632
-0.13381203
-0.11601564
-0.098679365
-0.081963901
-0.065895899
-0.050428792
-0.035477285
-0.020937107
-0.0066950745
0.007367432
0.021374772
0.035445658
0.049717724
0.064338234
0.079472108
0.095305699
0.11205023
0.1299399
0.149215
0.17006308
0.19247659
0.21602264
0.23919119
0.25658677
0.25799102
-0.24380544
-0.23709656
-0.21808539
-0.19552455
-0.17233145
-0.14966147
-0.12816118
-0.10801992
-0.089180113
-0.071490364
-0.054768115
-0.038826347
-0.023485427
-0.0085760086
0.0060635637
0.020591013
0.035164717
0.049944328
0.065113559
0.08088259
0.097500927
0.11527559
0.13459294
0.15593944
0.17989798
0.20708689
0.23803384
0.27224883
0.30345817
0.31565234
-0.32179529
-0.29338465
-0.25880871
-0.22505795
-0.19347602
-0.16478826
-0.13911355
-0.11607678
-0.095197251
-0.07604278
-0.05824518
-0.041493449
-0.025524754
-0.010113047
0.0049424593
0.019827581
0.034726815
0.049825366
0.06532978
0.081479464
0.098567909
0.11697555
0.1372201
0.16003298
0.18647074
0.21811361
0.25731125
0.30578903
0.3574458
0.40178972
-0.47088824
-0.36052899
-0.29742667
-0.25025605
-0.20953229
-0.17501397
-0.14595682
-0.12086173
-0.098639423
-0.078581803
-0.060160332
-0.042962599
-0.026664572
-0.011002745
0.0042469018
0.019284384
0.034308521
0.049518876
0.065129688
0.081388803
0.098604986
0.11718992
0.13773174
0.16113291
0.18889823
0.22383433
0.27154105
0.34104565
0.43181561
0.60426866
-0.78393421
-0.41969481
-0.29814976
-0.25030615
-0.20839922
-0.17259601
-0.14378347
-0.11926693
-0.097456556
-0.077697683
-0.059514898
-0.042508869
-0.026368399
-0.010842656
0.0042836721
0.019204625
0.034106521
0.049181021
0.06463413
0.080702454
0.097679012
0.11595567
0.13610411
0.15905136
0.18651048
0.22212551
0.27423069
0.36262435
0.5546107
1.0585591
)
;

boundaryField
{
    movingWall
    {
        type            zeroGradient;
    }
    fixedWalls
    {
        type            zeroGradient;
    }
    frontAndBack
    {
        type            empty;
    }
}


// ************************************************************************* //
