/*--------------------------------*- C++ -*----------------------------------*\
| =========                 |                                                 |
| \\      /  F ield         | OpenFOAM: The Open Source CFD Toolbox           |
|  \\    /   O peration     | Version:  2312                                  |
|   \\  /    A nd           | Website:  www.openfoam.com                      |
|    \\/     M anipulation  |                                                 |
\*---------------------------------------------------------------------------*/
FoamFile
{
    version     2.0;
    format      ascii;
    arch        "LSB;label=32;scalar=64";
    class       surfaceScalarField;
    location    "0.1";
    object      phi;
}
// * * * * * * * * * * * * * * * * * * * * * * * * * * * * * * * * * * * * * //

dimensions      [0 3 -1 0 0 0 0];

oriented        oriented;

internalField   nonuniform List<scalar> 
1740
(
-8.5977369e-06
8.5977713e-06
-2.6871519e-05
1.827377e-05
-4.7667962e-05
2.0796421e-05
-6.8385108e-05
2.0717132e-05
-8.8289417e-05
1.9904308e-05
-0.00010707607
1.8786664e-05
-0.0001245212
1.7445157e-05
-0.00014042541
1.5904243e-05
-0.00015460846
1.4183079e-05
-0.00016691108
1.2302645e-05
-0.00017719667
1.0285597e-05
-0.00018535202
8.1553512e-06
-0.00019128757
5.9355542e-06
-0.00019493738
3.6498139e-06
-0.0001962589
1.3215407e-06
-0.00019523314
-1.0257653e-06
-0.00019186516
-3.3679967e-06
-0.00018618428
-5.6808633e-06
-0.00017824443
-7.9398455e-06
-0.00016812472
-1.0119715e-05
-0.00015593027
-1.2194434e-05
-0.0001417923
-1.4137947e-05
-0.00012586726
-1.5925049e-05
-0.00010833544
-1.7531821e-05
-8.9399965e-05
-1.8935463e-05
-6.9292301e-05
-2.0107651e-05
-4.832902e-05
-2.096328e-05
-2.7263902e-05
-2.1065104e-05
-8.7414457e-06
-1.8522418e-05
-8.74147e-06
-1.8413711e-05
2.7011471e-05
-5.0663947e-05
5.0523966e-05
-8.6472358e-05
5.6604806e-05
-0.00012222326
5.6468029e-05
-0.00015665685
5.4337912e-05
-0.00018918174
5.1311597e-05
-0.00021937989
4.7643357e-05
-0.00024689498
4.3419378e-05
-0.0002714131
3.8701224e-05
-0.00029266071
3.3550273e-05
-0.00031040509
2.8029975e-05
-0.00032445453
2.2204802e-05
-0.00033465828
1.6139318e-05
-0.00034090629
9.897819e-06
-0.00034312888
3.5441609e-06
-0.00034129675
-2.8578672e-06
-0.00033542099
-9.2437768e-06
-0.00032555376
-1.5548097e-05
-0.0003117892
-2.170436e-05
-0.00029426436
-2.7644522e-05
-0.00027316002
-3.3298773e-05
-0.00024870148
-3.85965e-05
-0.00022115875
-4.3467767e-05
-0.00019084644
-4.7844099e-05
-0.00015812593
-5.1655962e-05
-0.00012342494
-5.4808651e-05
-8.7350567e-05
-5.7037651e-05
-5.1190281e-05
-5.7225327e-05
-1.8612446e-05
-5.1100291e-05
-2.7353845e-05
-2.1601293e-05
4.8612744e-05
-5.8568001e-05
8.7490632e-05
-9.9267017e-05
9.7303795e-05
-0.00013980092
9.700192e-05
-0.00017882056
9.3357549e-05
-0.00021566814
8.8159199e-05
-0.00024986869
8.1843928e-05
-0.00028101761
7.4568312e-05
-0.00030876063
6.6444245e-05
-0.00033279095
5.7580601e-05
-0.00035284893
4.8087952e-05
-0.00036872168
3.8077559e-05
-0.00038024247
2.7660148e-05
-0.0003872901
1.6945472e-05
-0.00038978824
6.0423181e-06
-0.00038770506
-4.9410031e-06
-0.00038105322
-1.5895592e-05
-0.00036989047
-2.671083e-05
-0.00035432104
-3.7273781e-05
-0.00033449699
-4.7468533e-05
-0.0003106196
-5.7176128e-05
-0.00028294042
-6.6275688e-05
-0.00025176225
-7.4645981e-05
-0.00021743999
-8.2166356e-05
-0.00018038371
-8.8712218e-05
-0.0001410786
-9.4113748e-05
-0.00010019895
-9.7917277e-05
-5.9123554e-05
-9.8300727e-05
-2.1807303e-05
-8.8416464e-05
-4.9161145e-05
-2.2744893e-05
7.1357607e-05
-6.1813183e-05
0.00012655888
-0.00010473886
0.00014022945
-0.00014741187
0.00013967491
-0.00018844862
0.00013439429
-0.00022717474
0.00012688533
-0.00026309764
0.00011776684
-0.00029579652
0.0001072672
-0.00032490393
9.5551658e-05
-0.00035010333
8.2779997e-05
-0.00037112832
6.9112946e-05
-0.00038776164
5.4710901e-05
-0.00039983387
3.9732407e-05
-0.00040722203
2.4333674e-05
-0.00040984855
8.6688707e-06
-0.00040768057
-7.1089857e-06
-0.00040072986
-2.2846283e-05
-0.00038905373
-3.8386916e-05
-0.00037275656
-5.3570938e-05
-0.00035199154
-6.8233574e-05
-0.00032696279
-8.2204904e-05
-0.00029792748
-9.5310984e-05
-0.00026519757
-0.00010737585
-0.00022914095
-0.00011822298
-0.00019018397
-0.00012766925
-0.00014883015
-0.00013546758
-0.00010577245
-0.00014097491
-6.2427642e-05
-0.00014164559
-2.2971163e-05
-0.0001278729
-7.2132346e-05
-2.3703787e-05
9.5061363e-05
-6.4566565e-05
0.00016742162
-0.00010945683
0.00018511969
-0.00015404058
0.00018425865
-0.00019687513
0.00017722885
-0.00023726288
0.00016727309
-0.00027469537
0.00015519934
-0.00030874003
0.00014131186
-0.00033902163
0.00012583325
-0.0003652194
0.00010897777
-0.00038706563
9.0959166e-05
-0.00040434356
7.1988847e-05
-0.00041688515
5.227401e-05
-0.0004245687
3.2017226e-05
-0.00042731703
1.1417215e-05
-0.00042509651
-9.3295079e-06
-0.0004179169
-3.002592e-05
-0.00040583224
-5.0471581e-05
-0.00038894293
-7.0460227e-05
-0.00036739839
-8.9778108e-05
-0.00034140004
-0.00010820327
-0.00031120453
-0.00012550651
-0.00027712671
-0.00014145367
-0.00023954174
-0.00015580794
-0.00019888818
-0.00016832279
-0.00015568694
-0.00017866878
-0.00011065716
-0.00018600472
-6.5279839e-05
-0.00018702293
-2.3966194e-05
-0.00016918656
-9.6098524e-05
-2.4907255e-05
0.0001199686
-6.7916736e-05
0.0002104311
-0.00011516338
0.00023236635
-0.0001620542
0.00023114949
-0.00020706245
0.00022223713
-0.00024945428
0.00020966496
-0.00028869964
0.00019444472
-0.00032435228
0.0001769645
-0.00035602953
0.00015751049
-0.00038340825
0.00013635647
-0.00040622199
0.00011377289
-0.00042425745
9.002429e-05
-0.0004373506
6.5367161e-05
-0.00044538315
4.0049736e-05
-0.00044827957
1.4313609e-05
-0.00044600558
-1.1603512e-05
-0.00043856783
-3.7463679e-05
-0.00042601502
-6.3024395e-05
-0.00040844056
-8.8034701e-05
-0.00038598631
-0.00011223237
-0.00035884711
-0.00013534244
-0.00032727585
-0.00015707772
-0.00029158799
-0.00017714152
-0.00025216524
-0.00019523071
-0.00020946013
-0.00021102794
-0.00016401711
-0.00022411178
-0.00011659551
-0.00023342638
-6.8768074e-05
-0.0002348503
-2.5220457e-05
-0.00021273422
-0.00012131892
-2.6441724e-05
0.00014641032
-7.2129007e-05
0.00025611841
-0.000122303
0.00028254038
-0.0001720587
0.00028090522
-0.00021976225
0.00026994072
-0.00026463177
0.00025453451
-0.00030610949
0.00023592245
-0.00034373312
0.00021458813
-0.00037711295
0.00019089029
-0.0004059257
0.0001651692
-0.00042990956
0.00013775671
-0.00044885836
0.00010897306
-0.00046261563
7.9124418e-05
-0.00047106918
4.8503264e-05
-0.00047414686
1.7391249e-05
-0.00047181401
-1.3936386e-05
-0.00046407295
-4.5204741e-05
-0.00045096441
-7.6132919e-05
-0.00043257108
-0.00010642803
-0.00040902282
-0.00013578066
-0.00038050317
-0.00016386209
-0.00034725681
-0.00019032409
-0.00030959669
-0.00021480166
-0.00026791022
-0.00023691723
-0.00022266618
-0.00025627199
-0.00017443919
-0.00027233876
-0.00012404156
-0.00028382407
-7.3163397e-05
-0.00028572841
-2.682249e-05
-0.00025907515
-0.00014814141
-2.8341819e-05
0.00017475216
-7.7314835e-05
0.00030509146
-0.00013106713
0.0003362927
-0.00018431503
0.00033415315
-0.00023529285
0.00032091856
-0.00028315906
0.00030240075
-0.00032732274
0.00028008613
-0.00036730435
0.00025456972
-0.00040270903
0.00022629495
-0.00043321757
0.00019567772
-0.00045857812
0.00016311725
-0.00047859735
0.00012899227
-0.0004931315
9.365856e-05
-0.00050207857
5.7450307e-05
-0.00050537214
2.0684805e-05
-0.00050297781
-1.6330735e-05
-0.00049489211
-5.3290442e-05
-0.00048114439
-8.9880638e-05
-0.00046180145
-0.00012577099
-0.00043697475
-0.0001606074
-0.00040682963
-0.00019400724
-0.00037159594
-0.0002255578
-0.00033157879
-0.00025481884
-0.00028716838
-0.00028132768
-0.00023885066
-0.00030458969
-0.00018723619
-0.00032395326
-0.00013320323
-0.00033785705
-7.8587054e-05
-0.00034034463
-2.8810614e-05
-0.00030885155
-0.0001769521
-3.0644158e-05
0.00020539634
-8.3580779e-05
0.00035802809
-0.00014163501
0.00039434695
-0.00019906506
0.00039158322
-0.00025394481
0.00037579832
-0.00030536091
0.00035381686
-0.00035268462
0.00032740985
-0.00039541977
0.00029730487
-0.00043317097
0.00026404614
-0.00046563014
0.00022813688
-0.00049256384
0.00019005095
-0.00051380003
0.00015022845
-0.00052921523
0.00010907374
-0.00053872347
6.6958523e-05
-0.00054226773
2.4229031e-05
-0.00053981474
-1.8783748e-05
-0.00053135344
-6.1751753e-05
-0.00051689721
-0.00010433687
-0.00049648999
-0.00014617823
-0.00047021585
-0.00018688155
-0.00043821184
-0.00022601126
-0.00040068284
-0.0002630868
-0.00035791729
-0.00029758442
-0.00031030227
-0.00032894271
-0.00025833951
-0.00035655242
-0.00020268017
-0.00037961262
-0.00014428243
-0.00039625476
-8.5159028e-05
-0.0003994681
-3.1226205e-05
-0.00036278432
-0.0002081783
-3.3397782e-05
0.00023879413
-9.1061115e-05
0.00041569139
-0.00015422764
0.00045751347
-0.00021660347
0.00045395905
-0.00027606821
0.00043526307
-0.00033162328
0.00040937195
-0.0003825988
0.00037838537
-0.00042848542
0.00034319149
-0.00046889556
0.00030445628
-0.00050354368
0.00026278499
-0.00053222738
0.00021873462
-0.00055480818
0.00017280921
-0.00057119362
0.00012545914
-0.00058132202
7.7086885e-05
-0.0005851508
2.8057785e-05
-0.0005826494
-2.1285169e-05
-0.00057379687
-7.0604285e-05
-0.00055858463
-0.00011954911
-0.00053702425
-0.00016773862
-0.00050916012
-0.00021474568
-0.00047508665
-0.00026008473
-0.00043496881
-0.00030320465
-0.00038906453
-0.00034348872
-0.00033774724
-0.00038026
-0.00028152953
-0.0004127701
-0.00022110628
-0.00044003589
-0.00015753076
-0.00045983025
-9.3032018e-05
-0.00046396683
-3.4124747e-05
-0.00042169162
-0.00024230298
-3.6668093e-05
0.00027546221
-9.9930696e-05
0.00047895397
-0.00016912901
0.00052671178
-0.00023730482
0.00052213488
-0.00030210288
0.00050006116
-0.00036242479
0.00046969387
-0.00041755823
0.00043351881
-0.00046698856
0.0003926218
-0.00051034991
0.00034781759
-0.00054739659
0.00029983163
-0.00057797552
0.00024931352
-0.00060199921
0.00019683283
-0.00061942104
0.00014288092
-0.00063021491
8.7880711e-05
-0.00063435967
3.2202551e-05
-0.00063182974
-2.3815108e-05
-0.00062259159
-7.9842429e-05
-0.00060660695
-0.00013553377
-0.00058384253
-0.00019050307
-0.00055428635
-0.00024430188
-0.00051797026
-0.00029640082
-0.00047499784
-0.00034617711
-0.00042557563
-0.00039291099
-0.00037004609
-0.00043578956
-0.00030892228
-0.00047389393
-0.00024294312
-0.00050601506
-0.00017327349
-0.00052949992
-0.00010240609
-0.00053483419
-3.75808e-05
-0.00048651699
-0.00027988379
-4.0541445e-05
0.00031600364
-0.00011041823
0.00054883077
-0.00018670714
0.00060300073
-0.0002616493
0.00059707707
-0.00033260555
0.00057101743
-0.0003983622
0.00053545051
-0.0004581671
0.00049332369
-0.00051151475
0.00044596942
-0.00055808299
0.00039438577
-0.00059769155
0.00033944015
-0.00063026265
0.0002818846
-0.00065578362
0.00022235378
-0.00067427387
0.00016137113
-0.00068575792
9.9364726e-05
-0.00069024554
3.6690169e-05
-0.00068771931
-2.634135e-05
-0.00067813
-8.9431761e-05
-0.00066139996
-0.00015226386
-0.00063743494
-0.00021446815
-0.00060614445
-0.0002755924
-0.00056747073
-0.00033507454
-0.00052142559
-0.00039222227
-0.0004681335
-0.0004462031
-0.00040787872
-0.00049604435
-0.00034115585
-0.00054061683
-0.00026874323
-0.00057842767
-0.00019193454
-0.00060630863
-0.00011354407
-0.00061322461
-4.16932e-05
-0.00055836781
-0.00032157704
-4.5132348e-05
0.000361136
-0.00012282535
0.00062652382
-0.00020744314
0.00068761856
-0.0002902573
0.00067989124
-0.00036828513
0.00064904526
-0.00044018249
0.00060734783
-0.00050516668
0.00055830785
-0.00056276614
0.00050356885
-0.00061273602
0.00044435562
-0.00065499843
0.00038170254
-0.000689587
0.00031647317
-0.00071659614
0.00024936291
-0.00073613781
0.00018091278
-0.00074830694
0.0001115338
-0.00075315651
4.1539694e-05
-0.00075068182
-2.8816077e-05
-0.00074081435
-9.9299267e-05
-0.00072342528
-0.00016965295
-0.00069833909
-0.00023955436
-0.00066535822
-0.00030857328
-0.00062429914
-0.0003761336
-0.00057504
-0.00044148138
-0.00051757883
-0.00050366423
-0.00045209997
-0.00056152317
-0.00037904734
-0.00061366945
-0.00029922492
-0.00065825005
-0.0002140716
-0.0006914619
-0.00012679433
-0.00070050187
-4.6593211e-05
-0.00063856883
-0.00036817021
-5.0594744e-05
0.00041173078
-0.00013755513
0.00071348426
-0.00023197346
0.00078203691
-0.00032393843
0.00077185621
-0.00041005132
0.00073515814
-0.00048882537
0.00068612184
-0.00055946833
0.00062895079
-0.00062158328
0.00056568382
-0.00067505317
0.00049782552
-0.00071995508
0.00042660445
-0.00075648329
0.00035300136
-0.00078488188
0.00027776148
-0.00080538956
0.00020142043
-0.00081819673
0.00012434093
-0.00082341517
4.6758101e-05
-0.00082105906
-3.1172207e-05
-0.00081103686
-0.00010932148
-0.00079315463
-0.00018753516
-0.00076713091
-0.00026557804
-0.00073262507
-0.00034307908
-0.00068928073
-0.00041947793
-0.0006367856
-0.00049397652
-0.00057494824
-0.0005655016
-0.00050379014
-0.00063268127
-0.00042365153
-0.00069380806
-0.00033533218
-0.00074656941
-0.00024042792
-0.00078636614
-0.00014262576
-0.00079830407
-5.2458146e-05
-0.00072873649
-0.00042062833
-5.7139443e-05
0.00046887025
-0.00015515499
0.00081149983
-0.000261152
0.00088803391
-0.00036376156
0.00087446576
-0.00045908185
0.00083047844
-0.00054547991
0.00077251989
-0.00062219525
0.0007056661
-0.00068897095
0.00063245954
-0.00074589245
0.00055474705
-0.00079326533
0.00047397734
-0.00083151037
0.0003912464
-0.00086107632
0.00030732741
-0.00088237132
0.0002227154
-0.00089571199
0.00013768162
-0.00090128803
5.2334151e-05
-0.00089914041
-3.3319799e-05
-0.00088915123
-0.00011931065
-0.00087104596
-0.00020564044
-0.00084440831
-0.00029221569
-0.00080871084
-0.00037877655
-0.00076336456
-0.00046482425
-0.00070779133
-0.00054954982
-0.00064152216
-0.00063177083
-0.00056432225
-0.0007098812
-0.00047634259
-0.00078178771
-0.00037832097
-0.00084459103
-0.00027200911
-0.00089267798
-0.00016168041
-0.00090863275
-5.9532419e-05
-0.00083088452
-0.00048016078
-6.5061205e-05
0.00053393147
-0.00017638244
0.00092282107
-0.00029614271
0.0010077942
-0.00041115596
0.00098947896
-0.00051691602
0.00093623853
-0.00061166002
0.0008672639
-0.00069473512
0.00078874117
-0.00076612774
0.00070385215
-0.00082623482
0.00061485415
-0.00087569156
0.00052343412
-0.00091523136
0.00043078624
-0.00094557635
0.00033767241
-0.0009673557
0.00024449474
-0.00098104844
0.00015137434
-0.00098694462
5.8230322e-05
-0.00098512194
-3.5142479e-05
-0.00097543376
-0.00012899882
-0.00095750908
-0.00022356514
-0.00093076511
-0.00031895969
-0.00089443678
-0.0004151049
-0.00084762929
-0.00051163173
-0.00078940096
-0.00060777813
-0.00071888432
-0.00070228742
-0.00063545154
-0.00079331395
-0.00053892847
-0.00087831073
-0.00042988507
-0.00095363439
-0.00031019891
-0.0010123641
-0.00018485445
-0.0010339771
-6.8159825e-05
-0.00094757907
-0.00054832058
-7.4782182e-05
0.00060871364
-0.00020230805
0.001050347
-0.00033856028
0.0011440465
-0.00046805896
0.0011189776
-0.00058558518
0.0010537647
-0.00068930385
0.00097098257
-0.00077880426
0.00087824159
-0.00085447714
0.00077952506
-0.00091718784
0.00067756487
-0.00096803761
0.00057428393
-0.001008182
0.00047093069
-0.0010386993
0.00036818971
-0.0010604991
0.00026629447
-0.0010742627
0.00016513793
-0.0010804055
6.4373065e-05
-0.0010790537
-3.6494327e-05
-0.0010700316
-0.00013802095
-0.0010528575
-0.00024073916
-0.0010267506
-0.00034506664
-0.00099065309
-0.00045120238
-0.00094327918
-0.00055900565
-0.00088320149
-0.00066785582
-0.00080899206
-0.00077649686
-0.00071943284
-0.00088287318
-0.00061381163
-0.00098393197
-0.00049234258
-0.0010751035
-0.00035693815
-0.0011477686
-0.00021342766
-0.0011774876
-7.8835904e-05
-0.0010821708
-0.00062715646
-8.6924664e-05
0.0006956383
-0.00023448178
0.001197904
-0.00039068777
0.0013002525
-0.00053713369
0.0012654234
-0.00066779411
0.0011844251
-0.0007809023
0.0010840908
-0.00087652171
0.00097386104
-0.00095569489
0.0008586983
-0.0010199777
0.00074184767
-0.0010711166
0.00062542288
-0.0011108237
0.00051063779
-0.0011406276
0.00039799356
-0.0011617815
0.00028744834
-0.0011752097
0.00017856606
-0.0011814772
7.0640641e-05
-0.0011807724
-3.7199187e-05
-0.0011728937
-0.00014589968
-0.0011572404
-0.00025639258
-0.0011328069
-0.00036950019
-0.0010981901
-0.00048581918
-0.0010516212
-0.00060557464
-0.00099104186
-0.00072843507
-0.00091425382
-0.00085328487
-0.00081917088
-0.00097795609
-0.00070421388
-0.001098889
-0.0005689145
-0.0012104028
-0.00041500665
-0.0013016764
-0.00024927621
-0.001343218
-9.2296971e-05
-0.00123915
-0.00071945345
-0.00010243835
0.00079807667
-0.00027520948
0.0013706751
-0.0004558193
0.0014808624
-0.00062209134
0.0014316955
-0.0007671711
0.0013295048
-0.00088965985
0.0012065795
-0.0009904878
0.001074689
-0.0010717234
0.00093993394
-0.0011359196
0.00080604388
-0.0011856953
0.00067519858
-0.001223474
0.00054841653
-0.0012513334
0.00042585293
-0.0012709294
0.0003070444
-0.0012834639
0.00019110047
-0.0012896724
7.6849132e-05
-0.0012898186
-3.7053065e-05
-0.0012836841
-0.00015203414
-0.0012705511
-0.00026952553
-0.0012491778
-0.00039087347
-0.0012177762
-0.00051722072
-0.0011740082
-0.00064934259
-0.0011150266
-0.00078741663
-0.0010376036
-0.00093070786
-0.00093840507
-0.0010771546
-0.00081448748
-0.0012228065
-0.0006641435
-0.0013607467
-0.00048847578
-0.001477344
-0.00029523307
-0.0015364607
-0.0001096778
-0.0014247053
-0.00082913126
-0.00012283326
0.00092091
-0.00032802696
0.0015758687
-0.00053880851
0.001691644
-0.00072816951
0.0016210565
-0.0008886067
0.001489942
-0.0010196857
0.0013376585
-0.0011238529
0.0011788562
-0.0012047547
0.0010208357
-0.0012663496
0.00086763881
-0.0013124006
0.00072124968
-0.0013462058
0.00058222171
-0.0013704794
0.00045012662
-0.0013873217
0.00032388672
-0.0013982293
0.00020200818
-0.0014041183
8.2738157e-05
-0.0014053391
-3.5832342e-05
-0.0014016736
-0.00015569966
-0.0013923074
-0.00027889175
-0.0013757777
-0.0004074031
-0.0013499054
-0.000543093
-0.0013117265
-0.00068752155
-0.0012574567
-0.00084168647
-0.0011825465
-0.0010056181
-0.0010819194
-0.0011777817
-0.00095053725
-0.0013541887
-0.00078452679
-0.0015267572
-0.00058345172
-0.0016784191
-0.00035572278
-0.0017641897
-0.00013280653
-0.0016476216
-0.00096193778
-0.00015062882
0.0010715389
-0.00039853996
0.0018237798
-0.00064696028
0.0019400643
-0.00086283973
0.001836936
-0.0010386977
0.0016658
-0.001176196
0.0014751568
-0.0012803422
0.0012830025
-0.001357147
0.0010976405
-0.0014124893
0.0009229812
-0.0014515706
0.00076033099
-0.0014787044
0.00060935557
-0.0014972907
0.00046871289
-0.0015098749
0.00033647099
-0.0015182344
0.00021036763
-0.0015234544
8.7958169e-05
-0.0015259773
-3.3309424e-05
-0.0015256126
-0.00015606437
-0.0015214975
-0.00028300679
-0.0015120093
-0.00041689121
-0.001494632
-0.0005604703
-0.0014657884
-0.00071636514
-0.0014206688
-0.00088680596
-0.0013531227
-0.0010731641
-0.0012557415
-0.0012751628
-0.0011203695
-0.0014895607
-0.0009394706
-0.0017076562
-0.00070932227
-0.0019085675
-0.00043792569
-0.0020355863
-0.00016479061
-0.0019207566
-0.0011267284
-0.00019026753
0.0012618065
-0.0004959578
0.0021294701
-0.00079148959
0.0022355961
-0.0010368295
0.0020822759
-0.0012262824
0.001855253
-0.0013656636
0.0016145381
-0.0014641619
0.0013815008
-0.0015312106
0.0011646892
-0.0015751943
0.00096696492
-0.0016030119
0.00078814859
-0.001620057
0.00062640078
-0.00163038
0.00047903589
-0.0016369008
0.0003429917
-0.001641608
0.00021507488
-0.0016457127
9.2062868e-05
-0.0016497428
-2.9279398e-05
-0.0016535738
-0.00015223338
-0.0016563802
-0.00028020041
-0.0016565061
-0.00041676534
-0.0016512517
-0.00056572475
-0.0016365695
-0.00073104739
-0.0016066825
-0.00091669294
-0.0015536785
-0.0011261681
-0.001467225
-0.0013616163
-0.0013347351
-0.0016220507
-0.0011426982
-0.001899693
-0.0008808727
-0.002170393
-0.00055399165
-0.0023624673
-0.00021125229
-0.002263496
-0.0013379807
-0.00025005955
0.0015118661
-0.0006359332
0.0025153438
-0.00098985544
0.0025895184
-0.0012654761
0.0023578966
-0.0014629156
0.0020526925
-0.0015957036
0.0017473261
-0.001679576
0.0014653732
-0.0017286741
0.0012137873
-0.0017544265
0.00099271736
-0.0017655336
0.00079925562
-0.0017683602
0.00062922739
-0.0017674221
0.00047809782
-0.0017658291
0.00034139872
-0.001765635
0.00021488082
-0.0017680849
9.451273e-05
-0.0017737659
-2.3598397e-05
-0.0017826693
-0.00014332988
-0.0017941358
-0.00026873386
-0.0018066886
-0.00040421256
-0.0018177381
-0.00055467527
-0.0018231199
-0.00072566556
-0.0018164316
-0.00092338123
-0.0017881631
-0.0011544366
-0.0017247121
-0.0014250672
-0.0016076388
-0.001739124
-0.0014141727
-0.0020931592
-0.0011218396
-0.002462726
-0.00072535495
-0.002758952
-0.00028312453
-0.0027057265
-0.0016211052
-0.00034640878
0.0018582749
-0.0008456637
0.0030145987
-0.0012690384
0.0030128931
-0.0015698583
0.0026587165
-0.0017624445
0.0022452787
-0.0018737876
0.0018586691
-0.0019292749
0.0015208606
-0.0019490121
0.0012335244
-0.0019476808
0.00099138615
-0.001935511
0.00078708575
-0.0019194129
0.00061312935
-0.0019039492
0.00046263414
-0.001892075
0.00032952441
-0.0018856612
0.00020846701
-0.0018858378
9.4689295e-05
-0.0018931985
-1.6237648e-05
-0.0019079053
-0.00012862313
-0.0019296333
-0.00024700586
-0.0019573889
-0.00037645697
-0.0019891617
-0.00052290249
-0.0020213232
-0.00069350398
-0.0020476589
-0.0008970455
-0.0020578934
-0.0011442021
-0.0020355966
-0.001447364
-0.0019555965
-0.0018191241
-0.0017819285
-0.0022668272
-0.0014705575
-0.0027740971
-0.00099143264
-0.0032380769
-0.00040353663
-0.0032936224
-0.0020246418
-0.00051244763
0.0023707225
-0.0011713543
0.0036735054
-0.0016672446
0.0035087834
-0.0019737713
0.0029652432
-0.0021352536
0.002406761
-0.002200274
0.0019236896
-0.0022070836
0.0015276701
-0.002182249
0.0012086898
-0.0021430171
0.00095215424
-0.0021001438
0.0007442124
-0.002060148
0.00057313349
-0.0020268924
0.00042937855
-0.002002637
0.00030526893
-0.0019887112
0.00019454123
-0.0019859219
9.1900013e-05
-0.0019947853
-7.3742659e-06
-0.0020156851
-0.00010772333
-0.0020488087
-0.00021388233
-0.0020940169
-0.00033124875
-0.0021505159
-0.00046640346
-0.0022162186
-0.00062780125
-0.0022865797
-0.00082668447
-0.0023525456
-0.0010782362
-0.0023970792
-0.0014028303
-0.002389615
-0.0018265883
-0.0022784186
-0.0023780236
-0.0019853037
-0.003067212
-0.0014258312
-0.0037975493
-0.00062426512
-0.0040951885
-0.0026489069
-0.00081027316
0.0031809957
-0.0016777206
0.0045409528
-0.0022164267
0.0040474895
-0.0024757206
0.0032245371
-0.00255534
0.0024863804
-0.0025336884
0.001902038
-0.0024629258
0.0014569075
-0.0023741462
0.0011199102
-0.0022845546
0.00086256269
-0.0022031741
0.00066283188
-0.0021344607
0.00050442005
-0.0020804322
0.00037535001
-0.0020419054
0.00026674212
-0.0020192064
0.00017184219
-0.0020125679
8.5261576e-05
-0.0020222903
2.3481444e-06
-0.0020490519
-8.0961767e-05
-0.0020936276
-0.00016930658
-0.0021570872
-0.00026778912
-0.0022405538
-0.00038293684
-0.0023447452
-0.00052360981
-0.0024689548
-0.00070247487
-0.0026088902
-0.00093830081
-0.002752223
-0.0012594975
-0.0028696842
-0.0017091271
-0.002898372
-0.0023493358
-0.002717096
-0.0032484879
-0.0021393616
-0.0043752837
-0.0010504243
-0.0051841258
-0.0036993312
-0.0013206358
0.0045016315
-0.002373228
0.005593545
-0.0028209511
0.0044952127
-0.0029048271
0.003308413
-0.0028075096
0.0023890629
-0.0026355407
0.0017300691
-0.0024475962
0.001268963
-0.0022715066
0.0009438205
-0.0021182198
0.00070927591
-0.0019908456
0.00053545764
-0.0018891863
0.00040276065
-0.001811859
0.00029802267
-0.0017573167
0.00021219978
-0.0017243394
0.00013886496
-0.0017122863
7.3208397e-05
-0.0017210537
1.111554e-05
-0.0017515802
-5.0435301e-05
-0.0018051316
-0.00011575515
-0.0018841075
-0.00018881316
-0.0019919719
-0.0002750725
-0.0021332705
-0.0003823112
-0.0023133438
-0.00052240154
-0.0025371364
-0.00071450822
-0.0028055824
-0.00099105156
-0.0031056722
-0.0014090373
-0.0033850627
-0.0020699453
-0.0034969928
-0.0031365577
-0.0031190118
-0.0047532648
-0.0018068011
-0.0064963364
-0.0055061323
-0.0019563525
0.006457984
-0.0027885023
0.0064256948
-0.0027265009
0.0044332112
-0.0023565232
0.0029384353
-0.0019202531
0.0019527927
-0.0015095425
0.0013193586
-0.0011590977
0.0009185182
-0.00087399711
0.00065871989
-0.00064730272
0.00048258151
-0.00046987719
0.00035803209
-0.00033362056
0.00026650401
-0.0002320779
0.00019648002
-0.00016045752
0.00014057944
-0.00011548547
9.3892922e-05
-9.5243765e-05
5.2966696e-05
-9.9088574e-05
1.4960349e-05
-0.00012750538
-2.201847e-05
-0.00018223668
-6.1023839e-05
-0.00026651889
-0.00010453098
-0.00038563374
-0.00015595769
-0.00054753568
-0.00022040925
-0.00076378625
-0.00030615095
-0.0010506657
-0.00042762887
-0.0014294764
-0.00061224084
-0.0019228261
-0.00091568757
-0.0025355617
-0.0014572097
-0.0031861933
-0.0024859262
-0.0035150635
-0.0044243946
-0.0026662301
-0.0073451698
-0.0081723625
-0.0013465095
0.0078044935
-0.00042285621
0.0055020415
0.0010871676
0.0029231874
0.0023212668
0.0017043361
0.0032488246
0.001025235
0.0039382332
0.00062994999
0.0044463635
0.00041038791
0.004821927
0.00028315637
0.0051020932
0.0002024153
0.0053123251
0.00014780014
0.0054697297
0.00010909939
0.0055858767
8.0332963e-05
0.005668557
5.7899096e-05
0.0057229005
3.9549466e-05
0.0057520972
2.3770007e-05
0.0057576421
9.4154167e-06
0.0057400287
-4.4049875e-06
0.0056976626
-1.8657829e-05
0.0056274895
-3.4357916e-05
0.0055243067
-5.2774895e-05
0.0053797072
-7.5809803e-05
0.0051802423
-0.00010668604
0.0049041294
-0.00015151608
0.0045151138
-0.00022322521
0.0039514007
-0.00035197444
0.0031068565
-0.00061266548
0.0018175675
-0.0011966373
1.9114121e-06
-0.0026087385
-0.001421402
-0.0059218564
-0.0095937644
0.0078044935
0.013306535
0.016229722
0.017934058
0.018959293
0.019589243
0.019999631
0.020282788
0.020485203
0.020633003
0.020742102
0.020822435
0.020880335
0.020919884
0.020943654
0.020953069
0.020948664
0.020930007
0.020895649
0.020842874
0.020767064
0.020660378
0.020508862
0.020285637
0.019933662
0.019320997
0.018124359
0.015515621
0.0095937643
)
;

boundaryField
{
    movingWall
    {
        type            calculated;
        value           uniform 0;
    }
    fixedWalls
    {
        type            calculated;
        value           uniform 0;
    }
    frontAndBack
    {
        type            empty;
        value           nonuniform List<scalar> 0();
    }
}


// ************************************************************************* //
