/*--------------------------------*- C++ -*----------------------------------*\
| =========                 |                                                 |
| \\      /  F ield         | OpenFOAM: The Open Source CFD Toolbox           |
|  \\    /   O peration     | Version:  2312                                  |
|   \\  /    A nd           | Website:  www.openfoam.com                      |
|    \\/     M anipulation  |                                                 |
\*---------------------------------------------------------------------------*/
FoamFile
{
    version     2.0;
    format      ascii;
    arch        "LSB;label=32;scalar=64";
    class       volVectorField;
    location    "0.1";
    object      U;
}
// * * * * * * * * * * * * * * * * * * * * * * * * * * * * * * * * * * * * * //

dimensions      [0 1 -1 0 0 0 0];

internalField   nonuniform List<vector> 
900
(
(-0.00010383209 0.00010338762 0)
(-0.00049845627 0.00023535495 0)
(-0.0011098949 0.00026982426 0)
(-0.0017432642 0.00026846557 0)
(-0.0023551038 0.00025761471 0)
(-0.0029366199 0.00024306476 0)
(-0.0034811291 0.00022573628 0)
(-0.0039823012 0.00020586808 0)
(-0.0044344319 0.00018367432 0)
(-0.0048324283 0.00015941218 0)
(-0.00517185 0.00013336857 0)
(-0.0054489482 0.000105844 0)
(-0.0056606809 7.7143948e-05 0)
(-0.0058047161 4.7574361e-05 0)
(-0.0058794296 1.7438787e-05 0)
(-0.0058838875 -1.2956328e-05 0)
(-0.0058178781 -4.3295591e-05 0)
(-0.005681932 -7.3259579e-05 0)
(-0.0054772907 -0.00010253107 0)
(-0.0052059435 -0.00013078289 0)
(-0.004870655 -0.00015767155 0)
(-0.0044749707 -0.00018285439 0)
(-0.004023203 -0.00020600952 0)
(-0.0035204054 -0.00022684061 0)
(-0.002972346 -0.000245079 0)
(-0.0023855223 -0.0002604258 0)
(-0.001766885 -0.00027190248 0)
(-0.0011256662 -0.00027360403 0)
(-0.0005062955 -0.00023888559 0)
(-0.00010583266 -0.00010548156 0)
(-0.00023776413 0.00049833864 0)
(-0.0009835856 0.00097573711 0)
(-0.0020438935 0.0010999286 0)
(-0.0031357751 0.0010967264 0)
(-0.0041930645 0.0010546851 0)
(-0.0051997569 0.00099578258 0)
(-0.0061427067 0.00092468603 0)
(-0.0070102705 0.00084289566 0)
(-0.0077923942 0.00075152223 0)
(-0.0084802775 0.00065171921 0)
(-0.0090663276 0.00054470288 0)
(-0.0095441769 0.00043171952 0)
(-0.0099086881 0.00031402347 0)
(-0.010155952 0.00019286589 0)
(-0.01028327 6.9488771e-05 0)
(-0.010289155 -5.4861998e-05 0)
(-0.010173338 -0.00017892124 0)
(-0.0099367723 -0.00030140683 0)
(-0.0095816404 -0.00042102184 0)
(-0.0091114047 -0.00053643522 0)
(-0.0085308342 -0.00064627835 0)
(-0.0078460114 -0.00074917524 0)
(-0.0070643591 -0.00084377928 0)
(-0.0061946481 -0.00092879037 0)
(-0.0052470286 -0.0010029234 0)
(-0.0042333572 -0.0010644932 0)
(-0.0031671175 -0.0011086253 0)
(-0.0020648862 -0.0011129225 0)
(-0.00099420265 -0.00098781335 0)
(-0.00024055867 -0.00050552201 0)
(-0.00028069499 0.0011212321 0)
(-0.0011435488 0.0020474091 0)
(-0.0023533219 0.0022838593 0)
(-0.0035926451 0.0022776738 0)
(-0.0047909719 0.0021921494 0)
(-0.0059316818 0.0020702036 0)
(-0.0069998861 0.0019221343 0)
(-0.0079823129 0.0017515468 0)
(-0.008867584 0.0015610072 0)
(-0.0096458016 0.0013530344 0)
(-0.010308474 0.0011302076 0)
(-0.010848516 0.00089513472 0)
(-0.011260233 0.0006504202 0)
(-0.011539311 0.00039865464 0)
(-0.011682787 0.00014240867 0)
(-0.01168904 -0.0001157554 0)
(-0.011557788 -0.00037325072 0)
(-0.01129009 -0.00062745274 0)
(-0.01088836 -0.00087569196 0)
(-0.010356427 -0.0011152306 0)
(-0.0096995923 -0.0013432587 0)
(-0.0089246452 -0.001556932 0)
(-0.0080398908 -0.0017534193 0)
(-0.00705518 -0.001929922 0)
(-0.0059819902 -0.0020835646 0)
(-0.0048338325 -0.0022104161 0)
(-0.0036259485 -0.0022997804 0)
(-0.0023755339 -0.0023079363 0)
(-0.0011546737 -0.0020697773 0)
(-0.00028358836 -0.0011345084 0)
(-0.00029492905 0.0017943509 0)
(-0.0012057245 0.0032008357 0)
(-0.0024836363 0.0035520246 0)
(-0.0037895935 0.003539466 0)
(-0.0050504234 0.0034062202 0)
(-0.0062496803 0.0032163589 0)
(-0.0073720222 0.0029856884 0)
(-0.0084036368 0.0027199657 0)
(-0.009332702 0.0024233281 0)
(-0.010148979 0.0020997859 0)
(-0.010843731 0.0017533927 0)
(-0.011409712 0.0013882128 0)
(-0.011841125 0.001008279 0)
(-0.01213359 0.00061757895 0)
(-0.012284106 0.00022006008 0)
(-0.012291018 -0.00018035387 0)
(-0.012154013 -0.00057972237 0)
(-0.011874128 -0.00097403985 0)
(-0.011453775 -0.0013592085 0)
(-0.010896792 -0.00173102 0)
(-0.010208535 -0.00208515 0)
(-0.0093959191 -0.0024171885 0)
(-0.0084674733 -0.0027226954 0)
(-0.0074333719 -0.0029972367 0)
(-0.006305529 -0.0032362216 0)
(-0.0050980147 -0.0034334173 0)
(-0.0038265527 -0.0035724099 0)
(-0.0025082412 -0.0035879159 0)
(-0.0012179872 -0.0032341762 0)
(-0.00029809214 -0.00181408 0)
(-0.00030676772 0.0024909193 0)
(-0.0012581372 0.0043990416 0)
(-0.002595199 0.0048681618 0)
(-0.0039603828 0.0048471279 0)
(-0.0052770439 0.0046631587 0)
(-0.0065282912 0.0044020623 0)
(-0.0076982884 0.0040851623 0)
(-0.0087727953 0.0037204103 0)
(-0.0097396966 0.0033135939 0)
(-0.010588578 0.0028702985 0)
(-0.011310626 0.0023961224 0)
(-0.011898588 0.0018966313 0)
(-0.0123467 0.0013773077 0)
(-0.012650627 0.00084353495 0)
(-0.012807399 0.00030061327 0)
(-0.012815358 -0.00024620236 0)
(-0.012674146 -0.00079164105 0)
(-0.012384722 -0.0013303449 0)
(-0.011949379 -0.0018568138 0)
(-0.011371836 -0.0023653663 0)
(-0.010657346 -0.0028501293 0)
(-0.0098127774 -0.0033050719 0)
(-0.0088466829 -0.0037240667 0)
(-0.0077693753 -0.0041009408 0)
(-0.0065930629 -0.0044292824 0)
(-0.0053322829 -0.0047004882 0)
(-0.0040033088 -0.0048923842 0)
(-0.0026237799 -0.0049174935 0)
(-0.0012723495 -0.0044448265 0)
(-0.00031041066 -0.0025179118 0)
(-0.00032204041 0.0032185432 0)
(-0.0013227822 0.0056541707 0)
(-0.0027303886 0.0062468964 0)
(-0.0041668448 0.0062159586 0)
(-0.0055510174 0.0059777039 0)
(-0.0068650709 0.0056409286 0)
(-0.0080924249 0.005232811 0)
(-0.0092183065 0.0047636764 0)
(-0.01023029 0.0042411112 0)
(-0.011117821 0.0036724007 0)
(-0.011872078 0.0030647826 0)
(-0.01248589 0.0024253823 0)
(-0.012953612 0.0017611511 0)
(-0.013271028 0.0010788573 0)
(-0.013435249 0.00038511762 0)
(-0.013444637 -0.00031353768 0)
(-0.013298776 -0.0010105656 0)
(-0.012998493 -0.0016993027 0)
(-0.012545892 -0.0023728793 0)
(-0.011944465 -0.0030241526 0)
(-0.011199245 -0.0036456737 0)
(-0.010316939 -0.004229713 0)
(-0.0093060408 -0.0047683363 0)
(-0.0081769535 -0.0052534844 0)
(-0.0069421916 -0.0056767509 0)
(-0.0056168609 -0.0060269419 0)
(-0.0042180599 -0.0062757306 0)
(-0.0027645111 -0.0063120931 0)
(-0.0013397246 -0.0057146535 0)
(-0.00032635546 -0.0032541033 0)
(-0.0003417491 0.0039870775 0)
(-0.0014046057 0.0069813961 0)
(-0.002899871 0.0077046328 0)
(-0.0044248394 0.0076621804 0)
(-0.0058928056 0.0073651576 0)
(-0.0072846355 0.0069469478 0)
(-0.0085827645 0.0064411112 0)
(-0.0097717618 0.0058606395 0)
(-0.010838866 0.0052151443 0)
(-0.011773429 0.004513789 0)
(-0.012566709 0.0037655759 0)
(-0.013211725 0.002979261 0)
(-0.013703063 0.0021632823 0)
(-0.014036721 0.001325762 0)
(-0.014209962 0.00047456961 0)
(-0.014221199 -0.00038257371 0)
(-0.014069942 -0.0012379488 0)
(-0.013756826 -0.0020836763 0)
(-0.01328367 -0.0029115771 0)
(-0.012653616 -0.0037130672 0)
(-0.011871338 -0.0044790958 0)
(-0.010943235 -0.0052001513 0)
(-0.0098776188 -0.0058663426 0)
(-0.0086849252 -0.006467511 0)
(-0.0073779928 -0.0069929848 0)
(-0.0059726239 -0.0074286311 0)
(-0.0044870014 -0.0077393811 0)
(-0.0029413304 -0.0077889264 0)
(-0.0014251747 -0.0070596048 0)
(-0.00034696013 -0.0040329745 0)
(-0.00036627024 0.00480696 0)
(-0.0015056394 0.0083977192 0)
(-0.0031082075 0.0092595699 0)
(-0.0047412239 0.0092034266 0)
(-0.006311172 0.0088418961 0)
(-0.0077972871 0.0083348986 0)
(-0.009180797 0.0077230715 0)
(-0.010445515 0.0070224823 0)
(-0.011578359 0.0062450806 0)
(-0.012568685 0.0054021479 0)
(-0.013407978 0.0045046118 0)
(-0.014089619 0.0035629399 0)
(-0.014608593 0.0025870643 0)
(-0.014961253 0.0015864045 0)
(-0.015145111 0.00056997669 0)
(-0.015158678 -0.00045344124 0)
(-0.01500138 -0.001475098 0)
(-0.014673585 -0.0024860341 0)
(-0.014176694 -0.0034768692 0)
(-0.013513325 -0.004437631 0)
(-0.012687588 -0.0053576481 0)
(-0.011705364 -0.0062255265 0)
(-0.010574598 -0.0070292302 0)
(-0.0093056312 -0.0077562229 0)
(-0.007911589 -0.0083931982 0)
(-0.0064090664 -0.0089226004 0)
(-0.0048175739 -0.0093018275 0)
(-0.0031591948 -0.0093671596 0)
(-0.0015309275 -0.0084975885 0)
(-0.00037265199 -0.0048655083 0)
(-0.00039604959 0.0056896574 0)
(-0.0016279135 0.0099223498 0)
(-0.0033597036 0.010932255 0)
(-0.0051223909 0.010859395 0)
(-0.0068141902 0.010425975 0)
(-0.0084123417 0.009820842 0)
(-0.0098966499 0.0090926057 0)
(-0.011250115 0.0082609585 0)
(-0.012459421 0.0073406069 0)
(-0.013514109 0.0063452611 0)
(-0.014406134 0.0052879725 0)
(-0.015129494 0.0041810073 0)
(-0.015679824 0.0030357783 0)
(-0.016054035 0.0018629046 0)
(-0.016250033 0.00067238651 0)
(-0.016266496 -0.00052614422 0)
(-0.016102753 -0.0017231201 0)
(-0.015758808 -0.0029087047 0)
(-0.015235469 -0.0040724821 0)
(-0.014534587 -0.0052031926 0)
(-0.013659414 -0.0062885525 0)
(-0.012615002 -0.0073151809 0)
(-0.01140864 -0.008268668 0)
(-0.010050343 -0.0091337385 0)
(-0.0085534052 -0.0098939585 0)
(-0.0069352584 -0.010527706 0)
(-0.005216974 -0.010983818 0)
(-0.0034229523 -0.011068545 0)
(-0.0016592736 -0.010048949 0)
(-0.00040393555 -0.0057638465 0)
(-0.00043171587 0.0066479131 0)
(-0.0017740588 0.011576804 0)
(-0.0036597181 0.012745603 0)
(-0.0055761766 0.012651818 0)
(-0.007411648 0.012137015 0)
(-0.0091409541 0.011421904 0)
(-0.010742269 0.010564224 0)
(-0.012197789 0.0095880173 0)
(-0.01349415 0.0085112983 0)
(-0.014621388 0.0073505986 0)
(-0.015572296 0.0061213296 0)
(-0.016341874 0.0048376413 0)
(-0.016926754 0.0035123767 0)
(-0.017324699 0.0021571959 0)
(-0.017534211 0.00078284078 0)
(-0.017554232 -0.00060049591 0)
(-0.017383987 -0.0019827441 0)
(-0.01702299 -0.003353489 0)
(-0.016471222 -0.0047015315 0)
(-0.015729433 -0.0060144971 0)
(-0.014799613 -0.0072785425 0)
(-0.013685534 -0.0084782048 0)
(-0.012393389 -0.0095964339 0)
(-0.010932492 -0.010614762 0)
(-0.0093160542 -0.011512983 0)
(-0.0075623107 -0.012264556 0)
(-0.0056941197 -0.012808413 0)
(-0.0037386994 -0.01291754 0)
(-0.0018132021 -0.011736667 0)
(-0.00044152035 -0.0067415806 0)
(-0.0004741241 0.0076961578 0)
(-0.0019475434 0.01338546 0)
(-0.0040151853 0.014725412 0)
(-0.0061126003 0.01460485 0)
(-0.0081159214 0.013996425 0)
(-0.0099970545 0.01315633 0)
(-0.011732361 0.012152929 0)
(-0.013303342 0.01101558 0)
(-0.014696929 0.0097663145 0)
(-0.015904137 0.0084249763 0)
(-0.016919143 0.0070096078 0)
(-0.017738495 0.0055363099 0)
(-0.018360313 0.004019249 0)
(-0.01878361 0.0024708787 0)
(-0.019007759 0.00090233063 0)
(-0.019032112 -0.00067605796 0)
(-0.018855776 -0.0022541574 0)
(-0.018477623 -0.0038214049 0)
(-0.017896502 -0.0053661909 0)
(-0.01711162 -0.0068753021 0)
(-0.016123144 -0.008333467 0)
(-0.014932939 -0.0097230764 0)
(-0.01354545 -0.011024142 0)
(-0.011968699 -0.012214445 0)
(-0.010215378 -0.013269177 0)
(-0.0083043573 -0.014155745 0)
(-0.0062604796 -0.014801425 0)
(-0.0041143741 -0.014941886 0)
(-0.0019966805 -0.013586991 0)
(-0.00048638395 -0.007814217 0)
(-0.00052441367 0.0088510653 0)
(-0.0021529301 0.015376415 0)
(-0.0044351397 0.016901156 0)
(-0.0067445847 0.016745663 0)
(-0.0089427847 0.016027743 0)
(-0.010998153 0.015043567 0)
(-0.012885115 0.013874086 0)
(-0.01458475 0.012555241 0)
(-0.016084857 0.011113998 0)
(-0.017378162 0.0095741136 0)
(-0.018461022 0.0079565553 0)
(-0.019332287 0.0062794004 0)
(-0.019992234 0.0045579398 0)
(-0.020441662 0.0028050471 0)
(-0.020681187 0.0010317461 0)
(-0.020710757 -0.00075206226 0)
(-0.020529369 -0.0025368018 0)
(-0.020135056 -0.0043123663 0)
(-0.019525148 -0.0060672749 0)
(-0.018696735 -0.0077878987 0)
(-0.017647414 -0.0094577869 0)
(-0.016376262 -0.011057189 0)
(-0.014885048 -0.012562873 0)
(-0.013179606 -0.0139482 0)
(-0.011271384 -0.0151827 0)
(-0.0091795146 -0.016226228 0)
(-0.0069309291 -0.016992096 0)
(-0.0045603732 -0.017173547 0)
(-0.0022149486 -0.01563042 0)
(-0.00053982959 -0.0089998216 0)
(-0.00058410245 0.010132279 0)
(-0.0023962622 0.017582635 0)
(-0.0049314559 0.019307032 0)
(-0.0074889391 0.019105173 0)
(-0.0099124873 0.018256984 0)
(-0.01216637 0.017104258 0)
(-0.014223083 0.01574312 0)
(-0.016063828 0.014217772 0)
(-0.017678177 0.012561276 0)
(-0.01906166 0.010802008 0)
(-0.020213927 0.0089641582 0)
(-0.021137175 0.0070677217 0)
(-0.021834725 0.0051287741 0)
(-0.022309858 0.0031600591 0)
(-0.022564919 0.0011718002 0)
(-0.022600707 -0.00082732666 0)
(-0.022416125 -0.0028291274 0)
(-0.022008138 -0.0048247772 0)
(-0.021372073 -0.0068036889 0)
(-0.020502167 -0.0087524488 0)
(-0.019392469 -0.010653854 0)
(-0.018038088 -0.012486145 0)
(-0.016436794 -0.014222579 0)
(-0.014590905 -0.015831334 0)
(-0.01250948 -0.017274951 0)
(-0.010211179 -0.018503744 0)
(-0.007724946 -0.019413987 0)
(-0.0050904387 -0.019649995 0)
(-0.0024749681 -0.017903096 0)
(-0.00060358405 -0.010319867 0)
(-0.00065523848 0.011563406 0)
(-0.0026856532 0.020043524 0)
(-0.0055199403 0.021983347 0)
(-0.0083677727 0.021718944 0)
(-0.011051257 0.020713 0)
(-0.013529834 0.019360112 0)
(-0.015774331 0.017775012 0)
(-0.017767052 0.01601237 0)
(-0.019500762 0.01411279 0)
(-0.020975376 0.012110062 0)
(-0.022195393 0.010031841 0)
(-0.023167749 0.0078998285 0)
(-0.02389997 0.005730343 0)
(-0.024398703 0.0035352081 0)
(-0.024668636 0.0013229035 0)
(-0.024711744 -0.00090016487 0)
(-0.024526876 -0.0031282825 0)
(-0.024109671 -0.0053550026 0)
(-0.02345287 -0.0075716844 0)
(-0.022546946 -0.0097660564 0)
(-0.021381154 -0.011920862 0)
(-0.019945063 -0.014012686 0)
(-0.01823062 -0.016011126 0)
(-0.016234689 -0.017878366 0)
(-0.013962138 -0.01956833 0)
(-0.01142985 -0.021019185 0)
(-0.0086683388 -0.022106025 0)
(-0.0057229978 -0.022415835 0)
(-0.0027861454 -0.020448665 0)
(-0.00067998634 -0.011800375 0)
(-0.00074064112 0.013173421 0)
(-0.00303219 0.022807104 0)
(-0.0062219615 0.024978376 0)
(-0.0094105477 0.024628311 0)
(-0.012393418 0.023427805 0)
(-0.015124572 0.021833538 0)
(-0.017573927 0.019983441 0)
(-0.019726576 0.017945515 0)
(-0.021580651 0.015769647 0)
(-0.023142724 0.013495864 0)
(-0.024424263 0.011155372 0)
(-0.025438767 0.0087711232 0)
(-0.026199434 0.006358833 0)
(-0.02671738 0.0039283061 0)
(-0.027000371 0.0014850148 0)
(-0.027051967 -0.00096825896 0)
(-0.026871035 -0.0034296985 0)
(-0.026451609 -0.0058966672 0)
(-0.025783191 -0.0083638805 0)
(-0.024851403 -0.010821529 0)
(-0.023639156 -0.013253406 0)
(-0.022128444 -0.01563516 0)
(-0.020302914 -0.017932845 0)
(-0.018151193 -0.020101892 0)
(-0.015671182 -0.022085693 0)
(-0.012875722 -0.023806893 0)
(-0.0097957738 -0.025113814 0)
(-0.0064831746 -0.025525049 0)
(-0.0031614314 -0.023320876 0)
(-0.00077228202 -0.013473563 0)
(-0.00084428362 0.014998717 0)
(-0.0034513309 0.025933138 0)
(-0.0070669171 0.028350919 0)
(-0.010657092 0.027881778 0)
(-0.013984382 0.026436776 0)
(-0.016997087 0.024546892 0)
(-0.019665872 0.022379386 0)
(-0.02198145 0.020019241 0)
(-0.023950609 0.017527623 0)
(-0.025589787 0.014951511 0)
(-0.026920256 0.012325432 0)
(-0.027964402 0.0096727194 0)
(-0.028742894 0.0070072082 0)
(-0.029272623 0.0043351818 0)
(-0.029565299 0.0016574554 0)
(-0.029626551 -0.0010285286 0)
(-0.029455376 -0.0037266272 0)
(-0.029043941 -0.0064398407 0)
(-0.028377815 -0.0091680861 0)
(-0.027436549 -0.011905836 0)
(-0.026194862 -0.014639609 0)
(-0.024624616 -0.017345425 0)
(-0.022697855 -0.019986417 0)
(-0.02039104 -0.022510779 0)
(-0.017690884 -0.02484929 0)
(-0.014602385 -0.026904803 0)
(-0.011154538 -0.028491326 0)
(-0.0074058523 -0.029044168 0)
(-0.0036190202 -0.026587406 0)
(-0.0008850616 -0.015380277 0)
(-0.00097191581 0.017086177 0)
(-0.0039651313 0.02949767 0)
(-0.008096044 0.03217381 0)
(-0.012162097 0.031536664 0)
(-0.015884943 0.029778513 0)
(-0.019207856 0.027520993 0)
(-0.022105564 0.024968863 0)
(-0.024579032 0.022228583 0)
(-0.026648613 0.019374669 0)
(-0.028345077 0.016461395 0)
(-0.029703199 0.013525782 0)
(-0.030757127 0.010590028 0)
(-0.031537101 0.0076642009 0)
(-0.032067258 0.0047490397 0)
(-0.032364201 0.0018386228 0)
(-0.032436167 -0.0010770586 0)
(-0.032282462 -0.0040096807 0)
(-0.031893179 -0.0069701254 0)
(-0.031249293 -0.0099658717 0)
(-0.030323028 -0.012998128 0)
(-0.029078846 -0.016058588 0)
(-0.027475395 -0.019125851 0)
(-0.02546885 -0.022161659 0)
(-0.023018046 -0.025107193 0)
(-0.0200922 -0.027878679 0)
(-0.016682186 -0.030354034 0)
(-0.012810256 -0.032302825 0)
(-0.0085404963 -0.033056651 0)
(-0.0041850978 -0.030335483 0)
(-0.001024981 -0.017573635 0)
(-0.0011321302 0.019497908 0)
(-0.0046059213 0.033599792 0)
(-0.0093684592 0.036538746 0)
(-0.014001918 0.035660901 0)
(-0.018177425 0.033493958 0)
(-0.021836031 0.030772452 0)
(-0.0249628 0.027749369 0)
(-0.02757644 0.024557853 0)
(-0.029718069 0.021287493 0)
(-0.031438867 0.017999315 0)
(-0.032791796 0.014730971 0)
(-0.033826145 0.011501027 0)
(-0.034584037 0.0083130959 0)
(-0.035098352 0.0051597029 0)
(-0.035391544 0.0020256434 0)
(-0.035474999 -0.0011090342 0)
(-0.035348586 -0.0042663268 0)
(-0.035000273 -0.0074676357 0)
(-0.034405955 -0.010730903 0)
(-0.033529401 -0.014067288 0)
(-0.032322719 -0.017477149 0)
(-0.03072787 -0.020945187 0)
(-0.028679874 -0.024434811 0)
(-0.026112588 -0.027881861 0)
(-0.022968449 -0.031186948 0)
(-0.019213991 -0.034197359 0)
(-0.014855658 -0.036624873 0)
(-0.0099589454 -0.037668931 0)
(-0.0048984605 -0.034680341 0)
(-0.0012020241 -0.020124663 0)
(-0.0013382883 0.022318821 0)
(-0.0054226117 0.038371897 0)
(-0.01097096 0.041562879 0)
(-0.016284977 0.040334627 0)
(-0.020974461 0.037624035 0)
(-0.024985615 0.034308998 0)
(-0.028325285 0.030704352 0)
(-0.03104182 0.02697528 0)
(-0.033207469 0.023226925 0)
(-0.034901827 0.019524785 0)
(-0.036201691 0.015903583 0)
(-0.037175192 0.012374328 0)
(-0.037878608 0.0089304373 0)
(-0.038354888 0.0055528215 0)
(-0.038633115 0.0022139786 0)
(-0.038728311 -0.0011187607 0)
(-0.038641238 -0.0044804643 0)
(-0.038357931 -0.0079060051 0)
(-0.037849122 -0.011427184 0)
(-0.037069451 -0.01506916 0)
(-0.035956925 -0.018845736 0)
(-0.034433296 -0.022753113 0)
(-0.03240632 -0.026761827 0)
(-0.029775353 -0.030806763 0)
(-0.026442753 -0.034774157 0)
(-0.022334391 -0.038475512 0)
(-0.017424245 -0.041548004 0)
(-0.011768299 -0.043018941 0)
(-0.0058185635 -0.039778382 0)
(-0.0014318048 -0.023131457 0)
(-0.0016121856 0.025669305 0)
(-0.0064919349 0.043995589 0)
(-0.013034304 0.047397628 0)
(-0.019167821 0.045650699 0)
(-0.024431463 0.042204366 0)
(-0.028793331 0.038121404 0)
(-0.032302323 0.033794682 0)
(-0.035054903 0.029425408 0)
(-0.037168926 0.025131851 0)
(-0.038762464 0.020978579 0)
(-0.039942478 0.016991167 0)
(-0.0407995 0.013167174 0)
(-0.041405745 0.0094847688 0)
(-0.041815007 0.0059091158 0)
(-0.042063322 0.002397021 0)
(-0.042169637 -0.0010997926 0)
(-0.04213603 -0.0046322186 0)
(-0.041947198 -0.0082516332 0)
(-0.041569324 -0.012007425 0)
(-0.040948175 -0.015943582 0)
(-0.040006907 -0.020093638 0)
(-0.03864427 -0.024473145 0)
(-0.036734473 -0.029068859 0)
(-0.03413085 -0.033823754 0)
(-0.030677348 -0.038615874 0)
(-0.0262338 -0.043219043 0)
(-0.020711875 -0.047176566 0)
(-0.014132911 -0.049287753 0)
(-0.0070402256 -0.04584816 0)
(-0.0017400212 -0.026734732 0)
(-0.0019914347 0.029727445 0)
(-0.0079393678 0.050726761 0)
(-0.015760923 0.054239742 0)
(-0.022880056 0.051711952 0)
(-0.028764016 0.047254373 0)
(-0.033438004 0.042169813 0)
(-0.037027793 0.036945718 0)
(-0.039705742 0.031818609 0)
(-0.041654618 0.026911556 0)
(-0.043042702 0.022277605 0)
(-0.044013246 0.017923069 0)
(-0.044681719 0.013823622 0)
(-0.045136784 0.009935645 0)
(-0.045442747 0.0062037808 0)
(-0.045642133 0.0025656645 0)
(-0.045757665 -0.0010452623 0)
(-0.045793203 -0.0046981047 0)
(-0.045733277 -0.0084634452 0)
(-0.045541235 -0.012411928 0)
(-0.045155856 -0.01661171 0)
(-0.044486715 -0.021123801 0)
(-0.043408851 -0.025993941 0)
(-0.04175801 -0.031239232 0)
(-0.03932917 -0.036827277 0)
(-0.035884254 -0.042643619 0)
(-0.031179131 -0.048431579 0)
(-0.025011233 -0.053623312 0)
(-0.017313106 -0.056714361 0)
(-0.0087219122 -0.053204303 0)
(-0.0021716824 -0.031145463 0)
(-0.0025452486 0.03477018 0)
(-0.0099797949 0.058935429 0)
(-0.019472981 0.062342981 0)
(-0.027762758 0.058620319 0)
(-0.034270949 0.052755911 0)
(-0.039149998 0.046361018 0)
(-0.042660154 0.04002812 0)
(-0.045089477 0.034017016 0)
(-0.046709429 0.02843656 0)
(-0.047750277 0.023309592 0)
(-0.048395717 0.018607749 0)
(-0.048786136 0.014273385 0)
(-0.049024768 0.010233226 0)
(-0.049184149 0.0064063009 0)
(-0.049311518 0.0027079674 0)
(-0.049432565 -0.00094851954 0)
(-0.0495534 -0.0046518967 0)
(-0.049660253 -0.0084936961 0)
(-0.04971688 -0.012568751 0)
(-0.049659415 -0.016974534 0)
(-0.049388599 -0.021808237 0)
(-0.048759348 -0.027159607 0)
(-0.047568389 -0.033096563 0)
(-0.045542495 -0.039638984 0)
(-0.042334744 -0.046712285 0)
(-0.037544002 -0.054056797 0)
(-0.030766599 -0.060990653 0)
(-0.021734985 -0.065610731 0)
(-0.011142911 -0.062311881 0)
(-0.0028115695 -0.036695964 0)
(-0.0034098213 0.041254644 0)
(-0.012999111 0.069168653 0)
(-0.024695532 0.072023735 0)
(-0.034324625 0.066447024 0)
(-0.041360298 0.058612612 0)
(-0.046214762 0.050511436 0)
(-0.049372915 0.042830189 0)
(-0.051291069 0.035816715 0)
(-0.052354569 0.029528727 0)
(-0.052863676 0.023928616 0)
(-0.053041398 0.018931551 0)
(-0.053048018 0.014432222 0)
(-0.052995505 0.010319105 0)
(-0.052959528 0.0064810246 0)
(-0.052988391 0.0028090747 0)
(-0.053108946 -0.00080408384 0)
(-0.053329887 -0.0044664489 0)
(-0.053641778 -0.0082903828 0)
(-0.054013896 -0.012396051 0)
(-0.054387384 -0.016913928 0)
(-0.05466411 -0.021985621 0)
(-0.054689936 -0.027760587 0)
(-0.054231513 -0.034384538 0)
(-0.052947173 -0.041971893 0)
(-0.050358691 -0.050547026 0)
(-0.045842535 -0.059915155 0)
(-0.038657435 -0.069321258 0)
(-0.028117565 -0.076368904 0)
(-0.014825034 -0.073880313 0)
(-0.0038332069 -0.043949893 0)
(-0.0048690296 0.0499883 0)
(-0.017718003 0.082246102 0)
(-0.032290954 0.083639635 0)
(-0.043306305 0.075160552 0)
(-0.050555358 0.064574534 0)
(-0.05494336 0.054288508 0)
(-0.057308461 0.04501997 0)
(-0.058334528 0.036927166 0)
(-0.058538471 0.029952582 0)
(-0.058286977 0.023953448 0)
(-0.057830552 0.018760482 0)
(-0.057336115 0.014204855 0)
(-0.056912711 0.010129015 0)
(-0.05663023 0.0063888647 0)
(-0.056532091 0.0028515064 0)
(-0.056643246 -0.00060900465 0)
(-0.056975095 -0.004116757 0)
(-0.057525652 -0.0078019321 0)
(-0.058276721 -0.011807933 0)
(-0.0591859 -0.016298388 0)
(-0.060172975 -0.021464264 0)
(-0.061097145 -0.027528918 0)
(-0.061721095 -0.034746464 0)
(-0.061657367 -0.043383366 0)
(-0.060297413 -0.053659451 0)
(-0.056736638 -0.065584792 0)
(-0.04970685 -0.078479385 0)
(-0.037704433 -0.089437472 0)
(-0.020809167 -0.089045446 0)
(-0.0056254601 -0.053978836 0)
(-0.0075259325 0.062480835 0)
(-0.025486118 0.099378037 0)
(-0.043605817 0.097485867 0)
(-0.055649093 0.084468664 0)
(-0.062351176 0.07010566 0)
(-0.065474272 0.057123334 0)
(-0.066360516 0.046098026 0)
(-0.065964256 0.036951709 0)
(-0.064924123 0.029411837 0)
(-0.06364447 0.023171726 0)
(-0.062372931 0.017946922 0)
(-0.061257577 0.013491433 0)
(-0.060385358 0.0095977409 0)
(-0.059807096 0.0060901336 0)
(-0.059552945 0.0028156719 0)
(-0.059641514 -0.00036487433 0)
(-0.060087004 -0.003584591 0)
(-0.060897495 -0.0069849303 0)
(-0.062075384 -0.010725428 0)
(-0.06360939 -0.014996607 0)
(-0.065461241 -0.020035796 0)
(-0.067540264 -0.026145824 0)
(-0.069657599 -0.03371406 0)
(-0.071446302 -0.043222891 0)
(-0.072231457 -0.055223024 0)
(-0.0708367 -0.070178383 0)
(-0.065283177 -0.087853414 0)
(-0.0526054 -0.10509698 0)
(-0.031251871 -0.10948991 0)
(-0.0091104415 -0.068823996 0)
(-0.012557463 0.081626825 0)
(-0.038547045 0.12215486 0)
(-0.060187828 0.11343831 0)
(-0.071770965 0.093476386 0)
(-0.076272963 0.074149738 0)
(-0.076745301 0.058080027 0)
(-0.075122489 0.045339822 0)
(-0.072595965 0.035371938 0)
(-0.069849528 0.027553531 0)
(-0.067249437 0.021350819 0)
(-0.064981536 0.016340763 0)
(-0.063133605 0.012196218 0)
(-0.061742876 0.0086644668 0)
(-0.060823582 0.0055464404 0)
(-0.060382213 0.0026786108 0)
(-0.06042488 -8.157324e-05 0)
(-0.060969596 -0.0028664378 0)
(-0.06203457 -0.0058173699 0)
(-0.063649115 -0.0090965015 0)
(-0.065848031 -0.01290552 0)
(-0.068662901 -0.017511008 0)
(-0.072102403 -0.023280624 0)
(-0.076109017 -0.030733997 0)
(-0.080467553 -0.040609729 0)
(-0.084624472 -0.053932255 0)
(-0.087343723 -0.071983283 0)
(-0.0859793 -0.095695563 0)
(-0.075370077 -0.12258882 0)
(-0.049998785 -0.13690266 0)
(-0.016312117 -0.091932903 0)
(-0.021529924 0.11313051 0)
(-0.058806784 0.15160307 0)
(-0.080692741 0.12956849 0)
(-0.087447454 0.099723044 0)
(-0.086361707 0.074578427 0)
(-0.08185168 0.055576156 0)
(-0.076224876 0.041675726 0)
(-0.070667414 0.031507354 0)
(-0.065694729 0.023960092 0)
(-0.061481128 0.018239561 0)
(-0.058052689 0.013791532 0)
(-0.055377672 0.010227039 0)
(-0.05340837 0.0072688954 0)
(-0.052101693 0.0047135326 0)
(-0.051428218 0.0024037914 0)
(-0.051374764 0.00020902478 0)
(-0.051960676 -0.0019932535 0)
(-0.053211568 -0.0043267574 0)
(-0.055183243 -0.0069365193 0)
(-0.057963734 -0.010008902 0)
(-0.061673898 -0.013803589 0)
(-0.066465689 -0.018704992 0)
(-0.072505126 -0.025308095 0)
(-0.07991182 -0.034564531 0)
(-0.088595702 -0.048023443 0)
(-0.097825243 -0.068155808 0)
(-0.10498125 -0.09822203 0)
(-0.10291107 -0.13889888 0)
(-0.079528243 -0.17353718 0)
(-0.030250993 -0.13288768 0)
(-0.032821252 0.1677131 0)
(-0.078637934 0.18367208 0)
(-0.085987424 0.13759394 0)
(-0.076997282 0.096666588 0)
(-0.064096629 0.06707423 0)
(-0.051121693 0.046941485 0)
(-0.039630537 0.033552384 0)
(-0.030123643 0.024493937 0)
(-0.022502866 0.018159305 0)
(-0.01649472 0.013579052 0)
(-0.011832953 0.010152651 0)
(-0.0082989588 0.0074928867 0)
(-0.00572503 0.0053435798 0)
(-0.0039913696 0.0035289724 0)
(-0.0030206923 0.0019218547 0)
(-0.002774543 0.00042138142 0)
(-0.0032533395 -0.0010696567 0)
(-0.0044879677 -0.0026419018 0)
(-0.0065501658 -0.0044007685 0)
(-0.009565817 -0.0064844902 0)
(-0.013729496 -0.0090946245 0)
(-0.019328683 -0.012549329 0)
(-0.026776532 -0.017385692 0)
(-0.036642759 -0.024569034 0)
(-0.049647957 -0.035933222 0)
(-0.066396098 -0.055075475 0)
(-0.086086232 -0.088653235 0)
(-0.10338907 -0.14557252 0)
(-0.1034141 -0.21983241 0)
(-0.048149233 -0.2169273 0)
(-0.017689921 0.24223836 0)
(-0.040192929 0.19670129 0)
(0.00901522 0.11863095 0)
(0.053780785 0.073739533 0)
(0.085486282 0.046641794 0)
(0.10902538 0.030024835 0)
(0.12666168 0.020172589 0)
(0.13968453 0.014151 0)
(0.1493377 0.010216355 0)
(0.1565687 0.0075063636 0)
(0.16200108 0.0055581614 0)
(0.16604892 0.0040942255 0)
(0.16899404 0.0029430164 0)
(0.17102549 0.0019946063 0)
(0.17226411 0.0011739992 0)
(0.17277668 0.00042460374 0)
(0.17259939 -0.0003044947 0)
(0.17171121 -0.0010628283 0)
(0.17004367 -0.0019030774 0)
(0.16747684 -0.002893444 0)
(0.16381285 -0.0041365072 0)
(0.15873509 -0.0058040025 0)
(0.15173318 -0.0082130202 0)
(0.14196473 -0.012008377 0)
(0.12799028 -0.018621207 0)
(0.10741667 -0.031411277 0)
(0.076715508 -0.058269114 0)
(0.030685233 -0.11619668 0)
(-0.035555271 -0.22792648 0)
(-0.018082231 -0.3049084 0)
(0.23866723 0.14694095 0)
(0.32151186 0.11852406 0)
(0.43991431 0.063691656 0)
(0.51830566 0.033449637 0)
(0.55762606 0.018524044 0)
(0.57992864 0.010733947 0)
(0.59472169 0.0066233356 0)
(0.60484922 0.0043863896 0)
(0.61192801 0.0030564834 0)
(0.61704705 0.0021969854 0)
(0.62082383 0.0016084863 0)
(0.62361789 0.0011842193 0)
(0.62566021 0.00086238737 0)
(0.6271018 0.00060592709 0)
(0.6280391 0.00039105099 0)
(0.62852955 0.00020095697 0)
(0.62860319 2.3616618e-05 0)
(0.62826134 -0.00015401368 0)
(0.62747551 -0.0003450849 0)
(0.62618502 -0.00056463807 0)
(0.62428354 -0.00083459837 0)
(0.6215913 -0.0011927835 0)
(0.61779593 -0.001713838 0)
(0.61231543 -0.0025640262 0)
(0.60396329 -0.0041542973 0)
(0.59016736 -0.0075641997 0)
(0.56465001 -0.015738473 0)
(0.50729953 -0.037140002 0)
(0.37954389 -0.092901988 0)
(0.31426603 -0.16191316 0)
)
;

boundaryField
{
    movingWall
    {
        type            fixedValue;
        value           uniform (1 0 0);
    }
    fixedWalls
    {
        type            noSlip;
    }
    frontAndBack
    {
        type            empty;
    }
}


// ************************************************************************* //
