/*--------------------------------*- C++ -*----------------------------------*\
| =========                 |                                                 |
| \\      /  F ield         | OpenFOAM: The Open Source CFD Toolbox           |
|  \\    /   O peration     | Version:  2312                                  |
|   \\  /    A nd           | Website:  www.openfoam.com                      |
|    \\/     M anipulation  |                                                 |
\*---------------------------------------------------------------------------*/
FoamFile
{
    version     2.0;
    format      ascii;
    arch        "LSB;label=32;scalar=64";
    class       volScalarField;
    location    "0.4";
    object      p;
}
// * * * * * * * * * * * * * * * * * * * * * * * * * * * * * * * * * * * * * //

dimensions      [0 2 -2 0 0 0 0];

internalField   nonuniform List<scalar> 
900
(
-2.266973e-08
-0.00024794564
-0.00040137844
-0.000420638
-0.00027337125
4.6736437e-05
0.00053196493
0.0011706925
0.0019505369
0.0028585517
0.0038808657
0.005002385
0.0062066438
0.0074757806
0.0087906015
0.010130712
0.011474715
0.012800419
0.014085116
0.015305916
0.016440095
0.017465432
0.018360505
0.019104914
0.019679567
0.020067694
0.020259017
0.02026082
0.020109844
0.019851969
0.00024582263
-4.186062e-06
-0.00011120663
-8.5282572e-05
8.2715212e-05
0.00040243071
0.00087276493
0.0014870022
0.0022358832
0.003108292
0.0040914394
0.0051709573
0.0063309575
0.0075541047
0.0088217217
0.010113939
0.011409913
0.012688018
0.013926144
0.015102053
0.01619376
0.01717997
0.018040582
0.01875732
0.019314535
0.019700667
0.019912309
0.019960216
0.01985734
0.019597693
0.00040445594
9.7593645e-05
-1.415316e-05
2.1642901e-05
0.00019523199
0.000514464
0.0009792525
0.0015841237
0.0023210025
0.0031796862
0.0041480298
0.0052121299
0.0063564522
0.0075639431
0.0088161578
0.010093425
0.011375046
0.012639531
0.013864876
0.015028942
0.016109862
0.017086528
0.017939181
0.018650147
0.019204657
0.019592111
0.019809965
0.019867247
0.019758043
0.019438898
0.00043488912
6.3787203e-05
-6.9455388e-05
-3.8022536e-05
0.000135028
0.00045471939
0.00092003645
0.0015252985
0.0022626921
0.0031223875
0.0040925617
0.0051595532
0.0063079931
0.0075209206
0.0087799146
0.010065256
0.011356121
0.012630822
0.013867097
0.015042482
0.016134743
0.017122384
0.017985283
0.018705425
0.019267621
0.019660477
0.019880186
0.019933027
0.019800286
0.019413961
0.00030020491
-0.00012101369
-0.00027502672
-0.00025050612
-7.841738e-05
0.0002443476
0.00071575973
0.001329626
0.0020780331
0.002951209
0.0039374033
0.0050229905
0.0061925815
0.0074291273
0.0087140384
0.01002733
0.011347808
0.012653298
0.013920949
0.015127591
0.016250175
0.017266316
0.018154945
0.01889707
0.019476421
0.019880286
0.0201034
0.020150255
0.019995001
0.019555509
-1.4709664e-05
-0.00047597414
-0.00064847381
-0.00063045383
-0.00045747551
-0.00012748604
0.00035666157
0.00098818736
0.0017588737
0.0026587771
0.0036760065
0.0047967746
0.0060054829
0.0072848047
0.008615783
0.00997795
0.011349491
0.01270746
0.014028076
0.015287064
0.016460105
0.017523396
0.018454352
0.019232407
0.019839681
0.02026182
0.020492191
0.020534453
0.020359088
0.019875701
-0.00051495915
-0.001013113
-0.0012028514
-0.0011898494
-0.0010128893
-0.00067046757
-0.00016610487
0.00049280548
0.0012976126
0.0022380323
0.0033018565
0.0044749638
0.0057413736
0.0070833052
0.0084812474
0.0099140457
0.011359035
0.012792222
0.014188558
0.015522258
0.016767256
0.017897788
0.018889144
0.01971857
0.020366028
0.02081519
0.021058088
0.021098183
0.020903807
0.020378288
-0.001205877
-0.0017429054
-0.0019498334
-0.0019400243
-0.0017553429
-0.0013946127
-0.00086196082
-0.00016543825
0.00068576875
0.0016808996
0.0028072811
0.0040503101
0.0053934782
0.006818402
0.0083048583
0.0098308321
0.011372606
0.012904888
0.014401034
0.01583335
0.017173523
0.018393233
0.019464978
0.020363109
0.021064784
0.021551224
0.021813019
0.021853788
0.021640049
0.021068542
-0.0020965606
-0.0026779239
-0.0029031493
-0.0028947998
-0.0026983595
-0.0023129657
-0.0017434101
-0.00099850649
-8.8093065e-05
0.00097646492
0.0021818962
0.0035129873
0.0049525843
0.0064815877
0.0080789467
0.0097216557
0.011384787
0.013041532
0.014663362
0.016220271
0.017681173
0.019014532
0.020189273
0.021175995
0.021948207
0.022483979
0.022772109
0.022816524
0.022581688
0.021956344
-0.0032005033
-0.00383404
-0.0040796213
-0.0040711778
-0.0038587269
-0.0034418573
-0.0028261979
-0.0020215082
-0.0010384327
0.00011091895
0.0014125488
0.0028505219
0.0044069476
0.0060619404
0.007793561
0.0095777452
0.011388263
0.013196632
0.014972196
0.016682256
0.018292408
0.019767157
0.021070919
0.022169469
0.023031532
0.023631003
0.023954247
0.02400548
0.023746621
0.023056525
-0.004535644
-0.0052310953
-0.0054998591
-0.0054898637
-0.0052568491
-0.0048011254
-0.004129443
-0.0032527736
-0.0021827772
-0.00093247426
0.00048327743
0.0020477235
0.0037421776
0.0055459473
0.0074362121
0.0093878656
0.011373381
0.013362535
0.015322381
0.017217206
0.019008736
0.020656694
0.022119873
0.023357845
0.024333027
0.025013662
0.025382665
0.025444347
0.025157457
0.024388809
-0.0061245186
-0.0068935583
-0.0071890234
-0.0071759659
-0.0069173349
-0.0064145837
-0.0056760011
-0.0047141365
-0.0035419426
-0.0021735599
-0.00062485541
0.0010865083
0.0029410254
0.0049172347
0.0069915266
0.0091378732
0.011327595
0.013528793
0.015706209
0.017820897
0.019830206
0.021688195
0.023346715
0.02475738
0.025874228
0.026657742
0.027085821
0.027162413
0.026842344
0.025977968
-0.0079946755
-0.0088513147
-0.0091776994
-0.0091598114
-0.0088696989
-0.0083105883
-0.007492902
-0.0064312626
-0.0051402803
-0.0036354834
-0.0019339274
-5.4269946e-05
0.0019831732
0.0041562837
0.0064408574
0.008810176
0.011234778
0.013681307
0.016112408
0.018485872
0.020754293
0.022865182
0.024761919
0.026385947
0.027680124
0.028594152
0.029098505
0.029195842
0.028836073
0.027854286
-0.010179417
-0.011140747
-0.011503022
-0.011477966
-0.01114922
-0.010522715
-0.0096118523
-0.0084340011
-0.0070059103
-0.0053448412
-0.0034692622
-0.0013989235
0.00084509001
0.0032401908
0.0057618848
0.0083831205
0.011074412
0.013801286
0.016524862
0.019199972
0.021774332
0.024188136
0.026374628
0.028262338
0.029779177
0.030859725
0.03146326
0.031589403
0.031181631
0.030054336
-0.012718952
-0.01380629
-0.014210235
-0.0141746
-0.013798045
-0.013090597
-0.012069825
-0.010756758
-0.0091709185
-0.0073317489
-0.0052594176
-0.0029748895
-0.00049996137
0.0021425523
0.0049283709
0.0078311199
0.010820811
0.013864056
0.016921046
0.019944394
0.022877307
0.025652237
0.028190641
0.030404888
0.032202952
0.033498023
0.034232264
0.034398933
0.033932472
0.032622046
-0.015662114
-0.016902714
-0.017354921
-0.017303365
-0.016866652
-0.016060974
-0.014909743
-0.013438866
-0.011671472
-0.0096297606
-0.007335974
-0.004812457
-0.0020816714
0.00083360718
0.0039098858
0.0071221357
0.010442125
0.013837781
0.017270153
0.020691191
0.024040795
0.027243976
0.030209142
0.032828927
0.034984942
0.036560001
0.037469789
0.037694986
0.037156022
0.035610141
-0.019068981
-0.020498566
-0.02100623
-0.020930011
-0.020415773
-0.019489001
-0.018181252
-0.016524916
-0.014547786
-0.012275555
-0.0097330227
-0.0069441492
-0.0039320126
-0.00071897267
0.0026729266
0.006221086
0.0099005492
0.013682463
0.017531043
0.021400166
0.025228826
0.028936212
0.032417492
0.035542213
0.038157791
0.040104015
0.041255351
0.04156836
0.040939337
0.039082191
-0.02301499
-0.024681463
-0.025251641
-0.025136017
-0.024518947
-0.023439846
-0.021941552
-0.020064967
-0.017843843
-0.015308266
-0.012486211
-0.0094035726
-0.0060840416
-0.0025491781
0.0011812159
0.0050881927
0.0091517802
0.013348891
0.017650159
0.022015262
0.026386501
0.030681086
0.034783014
0.038536875
0.041747324
0.04419404
0.045687346
0.046138554
0.045398621
0.04311598
-0.027597782
-0.02956646
-0.030204027
-0.03002366
-0.02926582
-0.027990622
-0.026256241
-0.024114534
-0.021606706
-0.018768282
-0.015631146
-0.012223554
-0.0085698806
-0.0046905526
-0.0006023263
0.0036808851
0.0081460764
0.012778695
0.017559975
0.022460811
0.027433411
0.032400232
0.037240355
0.041775505
0.045760483
0.04889352
0.050886305
0.051566892
0.050696157
0.047810563
-0.03294927
-0.035309555
-0.036012207
-0.035722958
-0.034766315
-0.033232514
-0.03119994
-0.028734073
-0.025885118
-0.022695148
-0.019200782
-0.015433145
-0.011417435
-0.0071726989
-0.0027119172
0.0019574091
0.0068313489
0.011906247
0.017179061
0.022638729
0.028256628
0.033972268
0.039672905
0.045167876
0.050161816
0.054249244
0.056994624
0.058076483
0.057071984
0.053304786
-0.039258316
-0.042129889
-0.042876518
-0.042400847
-0.041155411
-0.039272627
-0.03685608
-0.033987241
-0.030726615
-0.027123836
-0.023221053
-0.01905276
-0.014645154
-0.010015725
-0.0051731261
-0.0001171597
0.0051599972
0.01066403
0.016415893
0.022429248
0.028705902
0.035219399
0.041888007
0.048534206
0.054829599
0.060252846
0.064162272
0.065978059
0.064902354
0.059827776
-0.046815403
-0.050346599
-0.05107116
-0.050272193
-0.048597255
-0.046233818
-0.043313863
-0.039935858
-0.036171093
-0.03207735
-0.027702846
-0.023085723
-0.018253175
-0.013220963
-0.0079931684
-0.0025607454
0.0031024773
0.0089938858
0.015180538
0.021700973
0.028598404
0.035901248
0.04359263
0.05155639
0.059483496
0.066761352
0.072496156
0.075690133
0.074797293
0.067823872
-0.056103192
-0.060439796
-0.060974092
-0.059609729
-0.057284031
-0.05424711
-0.050656682
-0.046625833
-0.042235327
-0.037550657
-0.032625845
-0.027502206
-0.022207288
-0.016754612
-0.011143836
-0.0053614132
0.00061654543
0.0068650058
0.013412282
0.020341681
0.027749239
0.035737865
0.044395919
0.053742289
0.063596835
0.073368452
0.081947185
0.08772923
0.087744161
0.07823302
-0.067984401
-0.073147891
-0.073098212
-0.070740783
-0.067414944
-0.06342101
-0.058926477
-0.054049657
-0.048875659
-0.043474892
-0.037904968
-0.03220802
-0.026409533
-0.020518616
-0.014528808
-0.00841858
-0.0021485477
0.0043489038
0.011136858
0.018324386
0.026052073
0.034502723
0.043900996
0.054484764
0.066374449
0.079268473
0.09210806
0.10260639
0.10531656
0.093151344
-0.084102673
-0.08961179
-0.088085757
-0.083982897
-0.079106727
-0.073741654
-0.068022818
-0.062050296
-0.055900111
-0.049639294
-0.043322362
-0.036985989
-0.030647853
-0.024307986
-0.017950782
-0.011546415
-0.0050461974
0.0016275849
0.0085274795
0.015802139
0.023617816
0.032220856
0.041972701
0.053381674
0.067045969
0.08337099
0.10201592
0.12048547
0.12989577
0.11732889
-0.10771797
-0.11156875
-0.10656085
-0.099391106
-0.092113244
-0.084794869
-0.077445471
-0.070095169
-0.062778203
-0.055536233
-0.048404045
-0.041399411
-0.034521168
-0.027751995
-0.021061691
-0.014408794
-0.0077418622
-0.0009976082
0.0059488291
0.01318834
0.020912935
0.029413238
0.039161746
0.050924916
0.065866779
0.085461553
0.11096927
0.14111861
0.16434836
0.15953617
-0.14525865
-0.14144656
-0.12871783
-0.11619551
-0.10524197
-0.095233282
-0.085850164
-0.076931471
-0.068390306
-0.060191148
-0.052314665
-0.044735287
-0.037416815
-0.030315141
-0.02338038
-0.016557203
-0.0097840973
-0.0029895969
0.0039268146
0.011094376
0.018710324
0.02710568
0.036865377
0.049008718
0.065300251
0.088465427
0.12191885
0.16687092
0.21157552
0.22976177
-0.21030827
-0.1807809
-0.15289244
-0.13172545
-0.11555803
-0.10229048
-0.090873753
-0.080639228
-0.071212454
-0.062408414
-0.054118472
-0.046256083
-0.038744554
-0.031513933
-0.024497782
-0.017629923
-0.010840478
-0.0040503158
0.0028408511
0.0099914948
0.017637051
0.026187631
0.036395753
0.049652503
0.068458639
0.097066664
0.14179393
0.20666647
0.27991634
0.3474128
-0.34365109
-0.22271333
-0.16716132
-0.13689646
-0.11607599
-0.1007227
-0.088857729
-0.078774012
-0.069614992
-0.061097246
-0.053086165
-0.045473295
-0.038175115
-0.03112585
-0.024265278
-0.017532149
-0.010858776
-0.0041617644
0.0026738284
0.0098314655
0.017583813
0.026454134
0.037393334
0.052172863
0.074068127
0.1090278
0.1670215
0.25852104
0.38704904
0.60526008
-0.63208376
-0.25347268
-0.13603767
-0.10867833
-0.091769403
-0.079907967
-0.07260321
-0.066677111
-0.06062857
-0.054362061
-0.047998334
-0.041595058
-0.035192994
-0.028823108
-0.022493467
-0.016188513
-0.0098713654
-0.0034797147
0.0030852598
0.0099717501
0.017517898
0.026217702
0.037014967
0.051694822
0.073626255
0.10929373
0.17137829
0.28449179
0.51782404
1.0710224
)
;

boundaryField
{
    movingWall
    {
        type            zeroGradient;
    }
    fixedWalls
    {
        type            zeroGradient;
    }
    frontAndBack
    {
        type            empty;
    }
}


// ************************************************************************* //
