/*--------------------------------*- C++ -*----------------------------------*\
| =========                 |                                                 |
| \\      /  F ield         | OpenFOAM: The Open Source CFD Toolbox           |
|  \\    /   O peration     | Version:  2312                                  |
|   \\  /    A nd           | Website:  www.openfoam.com                      |
|    \\/     M anipulation  |                                                 |
\*---------------------------------------------------------------------------*/
FoamFile
{
    version     2.0;
    format      ascii;
    arch        "LSB;label=32;scalar=64";
    class       surfaceScalarField;
    location    "0.4";
    object      phi;
}
// * * * * * * * * * * * * * * * * * * * * * * * * * * * * * * * * * * * * * //

dimensions      [0 3 -1 0 0 0 0];

oriented        oriented;

internalField   nonuniform List<scalar> 
1740
(
-1.0603199e-06
1.0605018e-06
-1.2142323e-05
1.1082002e-05
-3.0975009e-05
1.8832683e-05
-5.3623607e-05
2.264856e-05
-7.7404503e-05
2.3780877e-05
-0.00010078515
2.338066e-05
-0.00012294438
2.2159245e-05
-0.00014342519
2.0480804e-05
-0.00016192835
1.8503126e-05
-0.00017821747
1.6289089e-05
-0.0001920857
1.38682e-05
-0.000203348
1.1262289e-05
-0.00021184189
8.4938934e-06
-0.00021743015
5.5882688e-06
-0.00022000381
2.5736797e-06
-0.00021948526
-5.1854646e-07
-0.00021583112
-3.654142e-06
-0.00020903574
-6.7953796e-06
-0.00019913447
-9.9012788e-06
-0.00018620648
-1.2927959e-05
-0.00017037771
-1.5828734e-05
-0.00015182547
-1.8552221e-05
-0.00013079204
-2.1033446e-05
-0.00010762524
-2.3166833e-05
-8.2881772e-05
-2.4743485e-05
-5.7539396e-05
-2.5342396e-05
-3.333803e-05
-2.4201387e-05
-1.3195096e-05
-2.014292e-05
-1.2712014e-06
-1.1923767e-05
-1.2710352e-06
-1.1049098e-05
1.2109597e-05
-4.2097692e-05
4.2130589e-05
-8.6679671e-05
6.3414715e-05
-0.00013848837
7.4457279e-05
-0.00019271887
7.8011346e-05
-0.0002462465
7.6908246e-05
-0.0002971749
7.308761e-05
-0.00034433225
6.7638129e-05
-0.00038692291
6.1093751e-05
-0.00042434003
5.3706176e-05
-0.00045608232
4.5610473e-05
-0.00048172335
3.6903317e-05
-0.00050090315
2.7673707e-05
-0.00051332819
1.8013333e-05
-0.00051877443
8.0199201e-06
-0.00051709215
-2.2008279e-06
-0.00050821094
-1.2535358e-05
-0.00049214671
-2.2859593e-05
-0.00046900783
-3.3040138e-05
-0.000439003
-4.2932759e-05
-0.0004024517
-5.238002e-05
-0.00035980275
-6.1201183e-05
-0.000311676
-6.9160248e-05
-0.00025895805
-7.5884826e-05
-0.00020300237
-8.0699176e-05
-0.00014598322
-8.2361562e-05
-9.1384124e-05
-7.8800564e-05
-4.440301e-05
-6.712414e-05
-1.1700813e-05
-4.4626038e-05
-1.2971846e-05
-1.918304e-05
3.1292634e-05
-6.4744778e-05
8.7692251e-05
-0.00012687291
0.00012554283
-0.00019759555
0.00014517995
-0.00027106818
0.000151484
-0.00034342765
0.0001492677
-0.00041223881
0.00014189875
-0.00047593122
0.00013133052
-0.00053340937
0.00011857189
-0.00058383578
0.00010413257
-0.00062652808
8.8302766e-05
-0.0006609165
7.1291737e-05
-0.00068652894
5.3286138e-05
-0.00070298748
3.4471867e-05
-0.00071000992
1.5042353e-05
-0.00070741377
-4.7970126e-06
-0.00069512291
-2.4826247e-05
-0.00067317456
-4.4807948e-05
-0.00064172859
-6.4486099e-05
-0.00060107874
-8.3582608e-05
-0.00055166847
-0.00010179032
-0.00049411826
-0.00011875146
-0.00042928137
-0.00013399719
-0.00035836167
-0.00014680454
-0.00028314504
-0.00015591581
-0.00020639468
-0.00015911192
-0.0001323957
-0.00015279947
-6.7452312e-05
-0.00013206737
-1.9947523e-05
-9.2130951e-05
-3.2919386e-05
-2.4004634e-05
5.5297297e-05
-7.9222397e-05
0.00014290995
-0.00015305706
0.00019937745
-0.0002361139
0.00022823677
-0.0003218435
0.00023721361
-0.00040599682
0.00023342103
-0.00048588731
0.00022178923
-0.00055975578
0.00020519897
-0.00062635568
0.00018517178
-0.0006847273
0.00016250417
-0.00073409015
0.0001376656
-0.000773797
0.00011099858
-0.00080331593
8.2805062e-05
-0.00082222452
5.3380445e-05
-0.00083020967
2.3027475e-05
-0.00082707062
-7.9360823e-06
-0.00081272518
-3.9171711e-05
-0.00078721792
-7.0315211e-05
-0.00075073146
-0.00010097258
-0.00070360056
-0.00013071353
-0.00064633177
-0.00015905914
-0.00057963538
-0.00018544789
-0.00050448683
-0.00020914578
-0.00042225172
-0.00022903967
-0.00033492907
-0.00024323851
-0.00024557361
-0.00024846745
-0.00015891119
-0.00023946185
-8.2013116e-05
-0.00020896536
-2.4739474e-05
-0.00014940466
-5.7658816e-05
-2.6810792e-05
8.2108094e-05
-8.8451536e-05
0.00020455068
-0.00017037877
0.00028130464
-0.00026200262
0.0003198606
-0.00035617638
0.00033138738
-0.0004483653
0.00032560995
-0.00053573203
0.00030915597
-0.00061642033
0.00028588726
-0.00068910974
0.00025786117
-0.00075278051
0.00022617493
-0.00080660353
0.0001914886
-0.00084989264
0.00015428767
-0.00088208491
0.00011499732
-0.00090273281
7.4028348e-05
-0.00091150236
3.1797031e-05
-0.00090817515
-1.1263295e-05
-0.00089265379
-5.4693067e-05
-0.00086497179
-9.7997202e-05
-0.00082530674
-0.00014063763
-0.00077399767
-0.00018202263
-0.00071156851
-0.00022148835
-0.00063876448
-0.00025825195
-0.00055661841
-0.00029129184
-0.00046658251
-0.00031907552
-0.00037078553
-0.0003390355
-0.00027248922
-0.0003467638
-0.00017678345
-0.0003351676
-9.1425248e-05
-0.00029432356
-2.7543267e-05
-0.00021328662
-8.5202059e-05
-2.8762358e-05
0.00011087041
-9.5305349e-05
0.00027109366
-0.00018368024
0.0003696795
-0.00028227053
0.00041845088
-0.00038335533
0.00043247217
-0.00048211274
0.00042436735
-0.00057556534
0.00040260856
-0.00066178353
0.00037210543
-0.00073940227
0.00033547989
-0.000807371
0.00029414364
-0.00086483769
0.00024895527
-0.00091109809
0.00020054808
-0.00094557326
0.0001494725
-0.0009677991
9.625422e-05
-0.00097742244
4.1420408e-05
-0.00097420171
-1.4483992e-05
-0.00095801216
-7.0882592e-05
-0.00092885715
-0.00012715219
-0.00088688401
-0.00018261078
-0.00083240556
-0.00023650111
-0.00076592915
-0.0002879648
-0.00068819973
-0.00033598138
-0.00060027465
-0.00037921692
-0.00050366771
-0.00041568246
-0.00040062847
-0.00044207475
-0.00029464146
-0.0004527508
-0.00019119853
-0.00043861052
-9.8760145e-05
-0.00038676202
-2.9591342e-05
-0.00028245538
-0.00011479346
-3.0585434e-05
0.00014145579
-0.00010176037
0.00034226857
-0.00019635036
0.00046426947
-0.00030176455
0.00052386507
-0.00040968144
0.00054038904
-0.0005149539
0.00052963979
-0.0006144415
0.00050209614
-0.00070613559
0.00046379949
-0.0007886328
0.00041797708
-0.00086086396
0.00036637476
-0.00092196795
0.00031005926
-0.00097123498
0.00024981513
-0.0010080794
0.00018631693
-0.0010320252
0.0001202001
-0.0010426992
5.2094436e-05
-0.0010398296
-1.7353609e-05
-0.0010232509
-8.746126e-05
-0.00099291703
-0.00015748603
-0.00094892045
-0.0002266074
-0.00089151943
-0.00029390217
-0.00082117528
-0.00035830897
-0.00073860603
-0.00041855062
-0.00064487512
-0.00047294783
-0.00054155543
-0.00051900218
-0.00043103978
-0.00055259042
-0.00031709019
-0.00056670034
-0.00020568355
-0.0005500172
-0.00010606199
-0.00048638363
-3.1625567e-05
-0.00035689181
-0.00014641909
-3.26688e-05
0.00017412456
-0.00010896732
0.00041856706
-0.0002104173
0.00056571945
-0.00032339332
0.00063684109
-0.0004389067
0.00065590243
-0.0005514315
0.00064216457
-0.00065763139
0.00060829599
-0.00075540455
0.00056157262
-0.00084330853
0.00050588103
-0.00092026288
0.0004433291
-0.00098540859
0.00037520496
-0.0010380419
0.00030244844
-0.0010775798
0.0002258549
-0.00110354
0.00014616031
-0.0011155288
6.4083302e-05
-0.0011132376
-1.9644832e-05
-0.0010964463
-0.00010425259
-0.0010650384
-0.00018889399
-0.0010190242
-0.0002726216
-0.00095857622
-0.00035435017
-0.00088407735
-0.00043280784
-0.00079619016
-0.00050643778
-0.00069596645
-0.00057317152
-0.00058504012
-0.00062992853
-0.00046597905
-0.0006716515
-0.00034289274
-0.00068978661
-0.0002223519
-0.00067055809
-0.00011451276
-0.00059422275
-3.4035447e-05
-0.0004373692
-0.0001804545
-3.5202702e-05
0.00020932725
-0.00011754972
0.00050091409
-0.00022702472
0.00067519447
-0.00034881714
0.00075863353
-0.000473168
0.00078025329
-0.00059410772
0.00076310429
-0.00070806931
0.00072225755
-0.00081284457
0.00066634783
-0.00090695334
0.00059998977
-0.00098931433
0.00052569007
-0.0010590856
0.00044497619
-0.0011155851
0.00035894798
-0.0011582464
0.00026851623
-0.0011865898
0.00017450366
-0.0012002037
7.769727e-05
-0.0011987371
-2.1111527e-05
-0.0011819002
-0.00012108946
-0.0011494821
-0.00022131206
-0.0011013785
-0.00032072529
-0.0010376363
-0.00041809235
-0.00095851784
-0.00051192627
-0.00086459104
-0.00060036455
-0.00075686843
-0.0006808941
-0.00063704018
-0.00074975677
-0.00050788038
-0.00080081128
-0.00037392543
-0.00082374155
-0.00024247495
-0.0008020086
-0.00012478815
-0.0007119095
-3.7018726e-05
-0.0005251387
-0.00021747319
-3.8291344e-05
0.0002476186
-0.00012788134
0.00059050415
-0.00024688299
0.00079419617
-0.00037907852
0.00089082906
-0.0005138009
0.00091497567
-0.00064456058
0.00089386396
-0.000767525
0.00084522194
-0.00088037147
0.00077919426
-0.00098159088
0.00070120914
-0.0010701198
0.00061421897
-0.0011451568
0.00052001317
-0.0012060659
0.00041985709
-0.0012523182
0.00031476855
-0.0012834518
0.00020563728
-0.0012990444
9.3289887e-05
-0.0012986986
-2.1457352e-05
-0.0012820393
-0.00013774876
-0.0012487324
-0.00025461898
-0.0011985173
-0.00037094039
-0.0011312637
-0.00048534594
-0.0010470542
-0.00059613571
-0.00094630376
-0.00070111503
-0.00082993867
-0.0007972592
-0.00069968514
-0.00088001028
-0.00055854844
-0.00094194796
-0.00041158115
-0.00097070887
-0.00026698024
-0.0009466095
-0.00013736063
-0.00084152916
-4.0701733e-05
-0.00062179759
-0.00025817501
-4.2019529e-05
0.00028963817
-0.00014026665
0.00068875134
-0.00027057126
0.00092450083
-0.00041502205
0.0010352799
-0.00056187119
0.0010618248
-0.00070402
0.0010360128
-0.00083733621
0.00097853813
-0.00095938245
0.00090124047
-0.0010686408
0.00081046747
-0.0011640971
0.00070967534
-0.001245027
0.00060094309
-0.0013108767
0.00048570681
-0.0013611868
0.00036507867
-0.0013955374
0.00023998783
-0.0014135084
0.00011126084
-0.0014146559
-2.0309811e-05
-0.0013985026
-0.00015390206
-0.0013645574
-0.00028856418
-0.0013123513
-0.00042314644
-0.0012415071
-0.00055619012
-0.0011518453
-0.00068579754
-0.0010435405
-0.00080941982
-0.00091735581
-0.00092344394
-0.00077500721
-0.0010223589
-0.0006197434
-0.0010972117
-0.00045723322
-0.0011332191
-0.00029678258
-0.0011070601
-0.00015269295
-0.00098561886
-4.5208048e-05
-0.00072928245
-0.00030338312
-4.6486403e-05
0.00033612461
-0.00015504274
0.00079730771
-0.00029871465
0.0010681728
-0.0004575409
0.0011941061
-0.00061848108
0.0012227649
-0.00077372453
0.0011912562
-0.00091880761
0.0011236212
-0.0010511898
0.0010336227
-0.0011693809
0.00092865854
-0.0012724653
0.00081275984
-0.0013598497
0.00068832745
-0.0014311148
0.000556972
-0.0014859172
0.00041988107
-0.0015239147
0.00027798532
-0.0015447117
0.00013205783
-0.0015478233
-1.7198176e-05
-0.0015326533
-0.00016907208
-0.0014985149
-0.00032270249
-0.0014446661
-0.00047699531
-0.0013703912
-0.00063046498
-0.0012751345
-0.00078105421
-0.0011587028
-0.0009258515
-0.0010215731
-0.0010605737
-0.00086536339
-0.0011785685
-0.00069355374
-0.0012690213
-0.00051253825
-0.0013142345
-0.00033299854
-0.0012865998
-0.00017135671
-0.0011472607
-5.0694662e-05
-0.00084994449
-0.00035407769
-5.182489e-05
0.00038794955
-0.00017264325
0.00091812606
-0.00033209709
0.0012276266
-0.00050773086
0.0013697399
-0.00068495305
0.0013999871
-0.00085512398
0.0013614271
-0.0010134238
0.001281921
-0.0011572384
0.0011774375
-0.0012851647
0.0010565848
-0.0013964594
0.00092405462
-0.0014907373
0.00078260535
-0.0015677877
0.00063402238
-0.0016274474
0.00047954072
-0.0016695034
0.00032004137
-0.001693619
0.00015617345
-0.0016992831
-1.1534011e-05
-0.001685766
-0.00018258912
-0.0016521445
-0.00035632401
-0.0015973251
-0.00053181466
-0.0015201377
-0.0007076524
-0.0014194954
-0.00088169644
-0.0012946537
-0.0010506931
-0.0011456137
-0.0012096136
-0.00097374107
-0.0013504411
-0.00078268855
-0.0014600738
-0.0005796852
-0.0015172378
-0.00037712465
-0.0014891603
-0.00019412695
-0.0013302583
-5.7377433e-05
-0.0009866941
-0.00041145509
-5.8219487e-05
0.00044616905
-0.00019365584
0.0010535624
-0.00037175975
0.0014057305
-0.00056701807
0.0015649982
-0.00076297162
0.0015959407
-0.00095002216
0.0015484777
-0.0011229833
0.0014548822
-0.0012792254
0.0013336796
-0.0014175246
0.0011948841
-0.0015374166
0.0010439466
-0.0016388316
0.00088402039
-0.0017218677
0.00071705845
-0.0017866295
0.00054430256
-0.0018331042
0.00036651609
-0.0018610634
0.00018413266
-0.0018700043
-2.5929548e-06
-0.0018590468
-0.00019354663
-0.0018269972
-0.0003883736
-0.0017723223
-0.00058648963
-0.0016932532
-0.00078672142
-0.0015879688
-0.00098698087
-0.0014549146
-0.0011837473
-0.0012933283
-0.0013711999
-0.0011040618
-0.0015397077
-0.00089079659
-0.001673339
-0.00066168465
-0.0017463497
-0.00043125161
-0.0017195934
-0.00022209659
-0.0015394134
-6.5560977e-05
-0.0011432297
-0.00047701617
-6.5930754e-05
0.0005120998
-0.00021889633
0.001206528
-0.00041912088
0.001605955
-0.00063730531
0.0017831827
-0.00085473446
0.0018133699
-0.0010607154
0.0017544587
-0.0012497141
0.001643881
-0.001419187
0.0015031525
-0.0015682293
0.0013439264
-0.0016968055
0.0011725228
-0.0018053075
0.00099252239
-0.0018942744
0.00080602541
-0.001964194
0.0006142222
-0.0020153485
0.00041767065
-0.002047686
0.00021647017
-0.0020607647
1.0485823e-05
-0.0020535562
-0.00020075519
-0.0020245727
-0.00041735715
-0.0019717462
-0.00063931611
-0.0018925434
-0.00086592431
-0.0017841499
-0.0010953744
-0.0016438475
-0.0013240496
-0.0014696833
-0.0015453641
-0.0012615649
-0.0017478261
-0.0010229031
-0.0019120008
-0.00076278862
-0.0020064642
-0.00049838901
-0.001983993
-0.00025685548
-0.0017809469
-7.5686597e-05
-0.0013243985
-0.00055270273
-7.5334672e-05
0.00058743446
-0.00024952029
0.0013807136
-0.00047614723
0.0018325819
-0.00072117022
0.0020282057
-0.00096314509
0.0020553448
-0.0011901571
0.0019814707
-0.0013963974
0.0018501213
-0.0015795788
0.0016863339
-0.0017393212
0.0015036688
-0.0018762263
0.0013094279
-0.0019913402
0.0011076363
-0.002085814
0.00090049928
-0.0021606646
0.00068907276
-0.0022165909
0.00047359697
-0.0022538292
0.00025370854
-0.0022719901
2.864667e-05
-0.0022700626
-0.00020268266
-0.0022461764
-0.0004412434
-0.0021976653
-0.00068782713
-0.0021210553
-0.00094253433
-0.0020122298
-0.0012041999
-0.0018668382
-0.0014694412
-0.001681117
-0.0017310854
-0.0014533372
-0.0019756058
-0.0011860615
-0.0021792765
-0.000889156
-0.0023033697
-0.00058300612
-0.0022901428
-0.00030080228
-0.0020631507
-8.8419468e-05
-0.0015367813
-0.00064112213
-8.698922e-05
0.00067442366
-0.0002872005
0.001580925
-0.00054561146
0.0020909929
-0.00082214672
0.002304741
-0.0010920703
0.0023252683
-0.0013421617
0.0022315622
-0.001566507
0.0020744666
-0.0017633496
0.0018831766
-0.0019331327
0.0016734519
-0.0020773765
0.0014536718
-0.0021980301
0.0012282899
-0.0022970675
0.00099953671
-0.0023762116
0.00076821685
-0.0024367268
0.00053411221
-0.0024792505
0.00029623218
-0.0025036246
5.3020824e-05
-0.0025088121
-0.00019749521
-0.0024926718
-0.00045738366
-0.0024518909
-0.00072860791
-0.0023818985
-0.0010125267
-0.0022769374
-0.001309161
-0.002130438
-0.0016159406
-0.0019359564
-0.001925567
-0.0016890388
-0.0022225235
-0.0013903388
-0.0024779766
-0.0010499368
-0.0026437718
-0.00069196942
-0.0026481101
-0.00035771639
-0.0023974037
-0.0001048203
-0.0017896775
-0.00074594249
-0.00010175045
0.00077617411
-0.00033441353
0.0018135881
-0.00063148025
0.0023880597
-0.00094511922
0.00261838
-0.0012466706
0.0026268197
-0.0015216378
0.0025065294
-0.0017643364
0.0023171652
-0.0019739723
0.0020928125
-0.0021522353
0.0018517149
-0.0023019366
0.0016033731
-0.0024262377
0.001352591
-0.0025281868
0.0011014858
-0.0026104179
0.00085044791
-0.002674934
0.00059862831
-0.0027229305
0.00034422872
-0.0027546209
8.4711228e-05
-0.0027690806
-0.00018303548
-0.0027640046
-0.00046245954
-0.0027354893
-0.00075712329
-0.0026777932
-0.0010702228
-0.0025832161
-0.0014037381
-0.0024423023
-0.0017568544
-0.0022447732
-0.0021230961
-0.0019817978
-0.0024854988
-0.0016502444
-0.0028095299
-0.0012590169
-0.0030349991
-0.00083618027
-0.0030709468
-0.00043383417
-0.0027997498
-0.00012670108
-0.0020968104
-0.00087264356
-0.00012097899
0.00089715312
-0.00039490139
0.0020875106
-0.00073948239
0.0027326407
-0.0010968382
0.0029757358
-0.0014337684
0.0029637499
-0.0017347739
0.0028075348
-0.0019950104
0.0025774017
-0.0022153057
0.0023131078
-0.0023991831
0.0020355923
-0.0025512222
0.0017554123
-0.0026761665
0.0014775353
-0.0027784201
0.0012037394
-0.0028617477
0.00093377552
-0.0029290767
0.00066595729
-0.0029823377
0.00039748966
-0.003022296
0.00012466952
-0.0030483544
-0.00015697695
-0.003058264
-0.00045254987
-0.0030477375
-0.00076764983
-0.0030099739
-0.0011079864
-0.0029351932
-0.0014785187
-0.0028104369
-0.0018816107
-0.0026202026
-0.0023133304
-0.0023489124
-0.002756789
-0.0019864762
-0.0031719661
-0.0015376044
-0.0034838709
-0.0010333231
-0.003575228
-0.00053984931
-0.0032932236
-0.00015736974
-0.00247929
-0.0010300132
-0.00014690905
0.0010440622
-0.00047439328
0.0024149948
-0.00087787328
0.0031361207
-0.0012864716
0.0033843342
-0.0016620675
0.0033393457
-0.0019889133
0.0031343806
-0.0022640531
0.0028525415
-0.0024909141
0.0025399689
-0.0026756411
0.0022203193
-0.0028251685
0.0019049398
-0.0029462369
0.0015986037
-0.0030448941
0.0013023965
-0.0031262432
0.0010151246
-0.0031943079
0.00073402202
-0.003251932
0.00045511374
-0.0033006477
0.00017338529
-0.0033404711
-0.00011715363
-0.0033695796
-0.00042344139
-0.0033837395
-0.00075349003
-0.0033755278
-0.0011161982
-0.0033333434
-0.0015207031
-0.0032404533
-0.0019745008
-0.0030747792
-0.0024790046
-0.0028109359
-0.0030206323
-0.0024268657
-0.0035560362
-0.00191713
-0.0039936068
-0.0013118685
-0.0041804895
-0.00069434936
-0.0039107426
-0.00020312044
-0.0029705189
-0.0012331337
-0.00018329531
0.0012273575
-0.00058164917
0.0028133487
-0.0010582521
0.0036127236
-0.0015258082
0.0038518902
-0.0019416322
0.0037551697
-0.0022913555
0.0034841039
-0.0025756216
0.0031368076
-0.0028018519
0.0027661992
-0.0029798248
0.0023982921
-0.0031195065
0.0020446214
-0.0032300558
0.001709153
-0.0033194104
0.0013917512
-0.0033941581
0.0010898722
-0.0034595305
0.00079939438
-0.0035194205
0.00051500376
-0.0035763418
0.00023030652
-0.0036312421
-6.2253285e-05
-0.003683273
-0.00037141053
-0.0037289558
-0.00070780714
-0.0037611642
-0.0010839898
-0.0037674445
-0.0015144228
-0.0037278906
-0.0020140547
-0.0036132296
-0.0025936656
-0.0033851084
-0.0032487535
-0.0030025134
-0.0039386312
-0.0024393082
-0.0045568119
-0.0017147455
-0.004905052
-0.00092861705
-0.0046968711
-0.00027589227
-0.0036232437
-0.001509026
-0.00023649583
0.0014638533
-0.00072971629
0.0033065691
-0.0012957972
0.0041788045
-0.0018279502
0.0043840431
-0.0022810249
0.0042082444
-0.0026451445
0.0038482235
-0.0029272021
0.0034188653
-0.0031405079
0.0029795049
-0.0032996899
0.0025574741
-0.0034184479
0.0021633794
-0.0035087027
0.0017994078
-0.0035804008
0.0014634493
-0.0036416151
0.0011510865
-0.0036987546
0.00085653389
-0.0037567742
0.00057302338
-0.0038193156
0.0002928479
-0.0038884626
6.8936325e-06
-0.0039650849
-0.00029478829
-0.0040473007
-0.00062559141
-0.0041297464
-0.001001544
-0.004201064
-0.0014431053
-0.0042403326
-0.0019747861
-0.0042124718
-0.0026215265
-0.0040646594
-0.003396566
-0.0037293797
-0.004273911
-0.0031439426
-0.005142249
-0.0022959004
-0.0057530943
-0.0012900112
-0.0057027604
-0.00039705322
-0.0045162017
-0.0019060791
-0.00031715551
0.0017810088
-0.00093674011
0.0039261536
-0.001607061
0.0048491253
-0.0022015667
0.0049785488
-0.0026783509
0.0046850286
-0.0030374861
0.0042073587
-0.0032959789
0.0036773581
-0.003475417
0.003158943
-0.0035965782
0.0026786354
-0.0036774588
0.00224426
-0.0037328413
0.0018547903
-0.0037745174
0.0015051255
-0.0038117609
0.0011883301
-0.0038518537
0.00089662667
-0.0039005594
0.00062172902
-0.0039624709
0.0003547594
-0.0040413177
8.5740379e-05
-0.0041394028
-0.00019670313
-0.004257844
-0.00050715023
-0.0043946558
-0.00086473226
-0.0045423761
-0.0012953851
-0.0046831918
-0.0018339703
-0.0047811454
-0.0025235729
-0.0047724086
-0.0034053027
-0.0045596924
-0.0044866271
-0.0040263375
-0.0056756039
-0.003093647
-0.0066857848
-0.001834932
-0.0069614753
-0.00060069495
-0.0057504388
-0.0025067741
-0.00044257837
0.0022235872
-0.0012243181
0.0047078932
-0.0020008304
0.0056256376
-0.0026343088
0.0056120272
-0.0030985503
0.0051492701
-0.0034123776
0.004521186
-0.003608073
0.0038730534
-0.003718128
0.0032689981
-0.0037704777
0.0027309851
-0.0037874588
0.0022612411
-0.003786235
0.0018535665
-0.0037797184
0.0014986088
-0.0037775897
0.0011862013
-0.0037872432
0.00090628014
-0.0038145858
0.00064907165
-0.0038646658
0.00040483934
-0.0039421132
0.00016318777
-0.0040510215
-8.7794951e-05
-0.0041958345
-0.00036233722
-0.0043790503
-0.0006815165
-0.0045999008
-0.0010745347
-0.0048490607
-0.0015848104
-0.005098659
-0.0022739747
-0.005285946
-0.0032180158
-0.0052938203
-0.0044787528
-0.004946088
-0.0060233363
-0.0040578352
-0.0075740375
-0.0025945925
-0.0084247179
-0.00093212109
-0.0074129102
-0.0034388952
-0.00063939217
0.0028629794
-0.0016083063
0.0056768073
-0.0024523904
0.0064697217
-0.0030531132
0.00621275
-0.0034236936
0.0055198506
-0.0036143346
0.0047118271
-0.0036783594
0.0039370782
-0.003661024
0.0032516626
-0.0035971296
0.0026670907
-0.0035120132
0.0021761247
-0.0034234853
0.0017650385
-0.0033438044
0.001418928
-0.003281416
0.001123813
-0.0032423711
0.00086723533
-0.0032314387
0.00063813924
-0.0032529626
0.00042636331
-0.0033116646
0.00022188974
-0.0034116829
1.222339e-05
-0.0035612399
-0.0002127802
-0.0037663802
-0.00047637616
-0.0040343015
-0.00080661338
-0.0043683761
-0.0012507358
-0.0047592411
-0.0018831097
-0.0051658053
-0.0028114516
-0.0054822871
-0.004162271
-0.005501817
-0.0060038064
-0.0049210057
-0.0081548488
-0.0034906591
-0.0098550645
-0.0014303356
-0.0094732338
-0.0048692308
-0.00094263271
0.0038056121
-0.0020683512
0.0068025257
-0.0028410621
0.0072424327
-0.0032404409
0.0066121288
-0.0033581357
0.0056375454
-0.0032896444
0.0046433358
-0.0031124309
0.0037598648
-0.0028826735
0.0030219051
-0.0026380387
0.0024224559
-0.0024023606
0.0019404466
-0.0021899334
0.0015526114
-0.0020088424
0.001237837
-0.0018634459
0.00097841651
-0.001756159
0.00075994844
-0.0016887217
0.00057070188
-0.0016630935
0.00040073515
-0.0016820971
0.0002408933
-0.001751101
8.1227341e-05
-0.0018754092
-8.8472113e-05
-0.0020657549
-0.00028603047
-0.0023351729
-0.00053719537
-0.002699888
-0.00088602065
-0.0031750572
-0.0014079404
-0.0037623612
-0.0022241477
-0.0044129065
-0.0035117257
-0.0049645084
-0.0054522045
-0.0050622196
-0.0080571377
-0.0041817908
-0.010735493
-0.0020625095
-0.011592515
-0.0069317403
-0.0013732436
0.0051788556
-0.0024506082
0.0078798903
-0.002804394
0.0075962185
-0.0026719303
0.0064796651
-0.0022711046
0.0052367198
-0.0017449842
0.0041172154
-0.0011856873
0.003200568
-0.00064779693
0.0024840147
-0.00015950632
0.0019341653
0.0002671997
0.0015137406
0.00062937079
0.0011904403
0.00092873315
0.00093847461
0.0011689872
0.00073816249
0.0013541029
0.00057483268
0.0014873202
0.00043748468
0.0015705494
0.00031750604
0.0016039198
0.00020752283
0.0015848541
0.00010029306
0.0015086817
-1.2299724e-05
0.0013655003
-0.00014284897
0.0011391418
-0.00031083685
0.00080406884
-0.00055094777
0.00032195384
-0.00092582544
-0.0003550994
-0.0015470944
-0.0012732633
-0.0025935617
-0.0024067303
-0.0043187375
-0.0035104462
-0.0069534218
-0.0039031744
-0.010342765
-0.0025848771
-0.012910812
-0.0095166174
-0.0018088334
0.006987689
-0.0021411828
0.0082122397
-0.001383973
0.0068390087
-0.00021267938
0.0053083715
0.0010303133
0.0039937271
0.0022000002
0.0029475284
0.0032338441
0.002166724
0.0041134072
0.0016044516
0.0048450783
0.0012024942
0.0054453416
0.00091347729
0.0059328067
0.00070297519
0.0063248659
0.00054641536
0.0066363571
0.00042667119
0.0068791228
0.00033206705
0.0070620332
0.00025457432
0.0071911536
0.00018838555
0.0072698264
0.00012884997
0.0072985011
7.1618354e-05
0.0072738997
1.2301768e-05
0.0071886811
-5.763035e-05
0.0070264187
-0.00014857453
0.0067578844
-0.00028241343
0.0063311814
-0.00049912239
0.0056574338
-0.00087334681
0.0046034146
-0.0015395426
0.0030117559
-0.002727079
0.00083771853
-0.0047793842
-0.001464048
-0.0080409987
-0.0023598556
-0.012015005
-0.011876473
-0.00093441051
0.0079220995
0.00099299186
0.0062848373
0.0038372694
0.0039947311
0.0064087545
0.0027368865
0.008537993
0.0018644885
0.010240305
0.001245216
0.01157039
0.00083663944
0.012599222
0.00057561943
0.013394501
0.00040721484
0.014011618
0.00029636097
0.01449295
0.00022164313
0.014869876
0.00016948856
0.015165158
0.0001313895
0.015395055
0.00010217056
0.015570975
7.8653514e-05
0.015700612
5.8749044e-05
0.015788571
4.0890814e-05
0.01583652
2.366964e-05
0.015843055
5.7663641e-06
0.01580231
-1.6885502e-05
0.015700073
-4.6337125e-05
0.015509197
-9.1537926e-05
0.015177312
-0.00016723679
0.014606097
-0.00030213166
0.013618934
-0.00055238036
0.011921603
-0.0010297475
0.0091068068
-0.0019645882
0.0049496187
-0.0038838107
0.00066429558
-0.0077296816
-0.011212177
0.0079220995
0.014206937
0.018201668
0.020938555
0.022803043
0.024048259
0.024884898
0.025460518
0.025867733
0.026164094
0.026385737
0.026555225
0.026686615
0.026788785
0.026867439
0.026926188
0.026967079
0.026990748
0.026996515
0.026979629
0.026933292
0.026841754
0.026674517
0.026372386
0.025820005
0.024790258
0.02282567
0.018941859
0.011212177
)
;

boundaryField
{
    movingWall
    {
        type            calculated;
        value           uniform 0;
    }
    fixedWalls
    {
        type            calculated;
        value           uniform 0;
    }
    frontAndBack
    {
        type            empty;
        value           nonuniform List<scalar> 0();
    }
}


// ************************************************************************* //
