/*--------------------------------*- C++ -*----------------------------------*\
| =========                 |                                                 |
| \\      /  F ield         | OpenFOAM: The Open Source CFD Toolbox           |
|  \\    /   O peration     | Version:  2312                                  |
|   \\  /    A nd           | Website:  www.openfoam.com                      |
|    \\/     M anipulation  |                                                 |
\*---------------------------------------------------------------------------*/
FoamFile
{
    version     2.0;
    format      ascii;
    arch        "LSB;label=32;scalar=64";
    class       volVectorField;
    location    "0.4";
    object      U;
}
// * * * * * * * * * * * * * * * * * * * * * * * * * * * * * * * * * * * * * //

dimensions      [0 1 -1 0 0 0 0];

internalField   nonuniform List<vector> 
900
(
(3.053413e-05 -2.992257e-05 0)
(-0.00012786738 8.8058212e-05 0)
(-0.00061272384 0.0001841516 0)
(-0.0012555085 0.00022937616 0)
(-0.0019635218 0.00024147745 0)
(-0.0026779751 0.00023637643 0)
(-0.0033651916 0.00022310012 0)
(-0.0040073021 0.00020580672 0)
(-0.0045938371 0.0001860084 0)
(-0.0051171625 0.00016412963 0)
(-0.0055707647 0.00014029266 0)
(-0.0059487966 0.00011460345 0)
(-0.0062460434 8.72209e-05 0)
(-0.0064579982 5.8359166e-05 0)
(-0.0065809555 2.8279613e-05 0)
(-0.0066121011 -2.7143899e-06 0)
(-0.0065495963 -3.4282151e-05 0)
(-0.0063926978 -6.6041287e-05 0)
(-0.0061418306 -9.7573895e-05 0)
(-0.0057986937 -0.00012843683 0)
(-0.0053663372 -0.00015817566 0)
(-0.0048492486 -0.00018632451 0)
(-0.0042535529 -0.00021233078 0)
(-0.0035876608 -0.00023525079 0)
(-0.0028642334 -0.0002529429 0)
(-0.0021050037 -0.00026053252 0)
(-0.0013491771 -0.00024832938 0)
(-0.00066210431 -0.00020002466 0)
(-0.00014340735 -9.7894419e-05 0)
(2.9509511e-05 2.8043051e-05 0)
(-8.6408643e-05 0.00012671325 0)
(-0.00066514115 0.00066437475 0)
(-0.0018558665 0.0010643091 0)
(-0.0033479077 0.0012682156 0)
(-0.0049649331 0.0013318972 0)
(-0.006597443 0.0013119606 0)
(-0.0081743449 0.0012454115 0)
(-0.0096521302 0.0011520449 0)
(-0.011003026 0.0010409513 0)
(-0.012206876 0.00091605452 0)
(-0.013247401 0.00077931251 0)
(-0.014110793 0.0006321366 0)
(-0.014785279 0.00047589871 0)
(-0.015261046 0.00031207771 0)
(-0.015530313 0.00014229483 0)
(-0.015587441 -3.1673436e-05 0)
(-0.015429079 -0.00020788563 0)
(-0.015054392 -0.00038422483 0)
(-0.014465193 -0.00055839423 0)
(-0.013666182 -0.00072792442 0)
(-0.012665199 -0.0008901569 0)
(-0.011473596 -0.0010421047 0)
(-0.010106991 -0.0011799212 0)
(-0.0085870183 -0.0012974206 0)
(-0.0069454871 -0.0013828319 0)
(-0.0052328675 -0.0014134263 0)
(-0.0035299495 -0.00134962 0)
(-0.0019574553 -0.0011335334 0)
(-0.00070338629 -0.00071007131 0)
(-9.2477406e-05 -0.00014098449 0)
(-0.00018544287 0.00061231073 0)
(-0.0010879816 0.0018601452 0)
(-0.0027769344 0.0027235342 0)
(-0.0048309379 0.0031741421 0)
(-0.0070277399 0.0033204716 0)
(-0.0092360508 0.0032740432 0)
(-0.011367107 0.0031127727 0)
(-0.013363667 0.0028813489 0)
(-0.015187786 0.0026023493 0)
(-0.016811563 0.0022868223 0)
(-0.018212655 0.0019408751 0)
(-0.019372444 0.0015688822 0)
(-0.020275353 0.001174796 0)
(-0.020908638 0.0007626167 0)
(-0.021262384 0.00033655932 0)
(-0.021329586 -9.8865003e-05 0)
(-0.021106314 -0.00053878801 0)
(-0.020591949 -0.00097795838 0)
(-0.019789377 -0.0014107072 0)
(-0.018705318 -0.0018308971 0)
(-0.017350703 -0.0022317899 0)
(-0.015741247 -0.0026055858 0)
(-0.013898513 -0.0029420646 0)
(-0.011852165 -0.0032252699 0)
(-0.0096449487 -0.0034268853 0)
(-0.0073423578 -0.0034960727 0)
(-0.0050445659 -0.0033496695 0)
(-0.0028960314 -0.0028738247 0)
(-0.0011328235 -0.0019621078 0)
(-0.00019256646 -0.0006490508 0)
(-0.00023985377 0.0012764919 0)
(-0.0013494796 0.0034070277 0)
(-0.0033743025 0.0048077111 0)
(-0.005799423 0.0055307452 0)
(-0.0083692838 0.0057605053 0)
(-0.010940688 0.0056733881 0)
(-0.013416552 0.0053927842 0)
(-0.015733238 0.0049907643 0)
(-0.017847834 0.0045050718 0)
(-0.019728421 0.003955159 0)
(-0.021349386 0.0033523043 0)
(-0.022689506 0.0027046844 0)
(-0.023731165 0.0020195441 0)
(-0.024460066 0.0013040326 0)
(-0.024865171 0.00056553443 0)
(-0.024938745 -0.00018815507 0)
(-0.024676501 -0.00094870314 0)
(-0.024077814 -0.001707145 0)
(-0.023146007 -0.0024537986 0)
(-0.021888735 -0.0031781288 0)
(-0.020318461 -0.00386846 0)
(-0.018453156 -0.0045111474 0)
(-0.01631751 -0.0050883277 0)
(-0.013945342 -0.0055726857 0)
(-0.011384879 -0.0059173147 0)
(-0.0087089897 -0.006040384 0)
(-0.0060276014 -0.0058102371 0)
(-0.0034988931 -0.0050469284 0)
(-0.0013941756 -0.0035696924 0)
(-0.00024599993 -0.0013360779 0)
(-0.00026777003 0.0020459518 0)
(-0.0015083311 0.0051751255 0)
(-0.0037634402 0.0071619573 0)
(-0.0064465752 0.0081693285 0)
(-0.0092747309 0.0084772894 0)
(-0.012094834 0.0083362457 0)
(-0.014804322 0.0079185109 0)
(-0.01733611 0.0073247715 0)
(-0.019644852 0.0066085164 0)
(-0.021696669 0.0057980511 0)
(-0.02346434 0.0049102515 0)
(-0.024925343 0.0039574888 0)
(-0.026061028 0.002950637 0)
(-0.026856273 0.0019002722 0)
(-0.027299356 0.00081717617 0)
(-0.027381975 -0.00028737911 0)
(-0.027099356 -0.0014014126 0)
(-0.026450452 -0.0025120414 0)
(-0.025438333 -0.0036052999 0)
(-0.024070619 -0.0046659014 0)
(-0.022360066 -0.0056767801 0)
(-0.020325397 -0.0066178832 0)
(-0.017992642 -0.0074630364 0)
(-0.015397695 -0.008172784 0)
(-0.01259187 -0.0086806133 0)
(-0.0096528208 -0.0088719397 0)
(-0.0066980026 -0.0085626511 0)
(-0.0038980706 -0.0074973128 0)
(-0.0015544286 -0.0054013693 0)
(-0.00027314726 -0.0021271952 0)
(-0.0002851442 0.002882137 0)
(-0.0016219477 0.0071027507 0)
(-0.0040575309 0.009721586 0)
(-0.006948848 0.011027153 0)
(-0.0099881361 0.011410313 0)
(-0.013011853 0.011204294 0)
(-0.015911923 0.010634452 0)
(-0.018618384 0.0098317943 0)
(-0.021084292 0.0088662436 0)
(-0.023274713 0.0077753055 0)
(-0.025161651 0.0065816931 0)
(-0.02672199 0.0053021569 0)
(-0.02793659 0.0039513263 0)
(-0.028789859 0.0025432675 0)
(-0.029269551 0.0010921684 0)
(-0.029366735 -0.00038724856 0)
(-0.029075883 -0.0018793847 0)
(-0.028395064 -0.0033674373 0)
(-0.027326417 -0.004833082 0)
(-0.025876683 -0.0062560999 0)
(-0.024057933 -0.0076137205 0)
(-0.021888586 -0.0088790166 0)
(-0.019394964 -0.010016856 0)
(-0.016614127 -0.010974738 0)
(-0.013599914 -0.011665117 0)
(-0.010434811 -0.011938091 0)
(-0.0072448001 -0.011552179 0)
(-0.0042147635 -0.010167291 0)
(-0.0016747422 -0.0074004908 0)
(-0.00029084304 -0.0029861925 0)
(-0.00030116249 0.0037719351 0)
(-0.0017281815 0.0091672149 0)
(-0.0043358258 0.012463977 0)
(-0.0074295424 0.014084544 0)
(-0.010676875 0.014542397 0)
(-0.013902421 0.014261853 0)
(-0.016991581 0.013525919 0)
(-0.019871116 0.012498173 0)
(-0.022492535 0.011265997 0)
(-0.02482016 0.0098765768 0)
(-0.026825633 0.0083587045 0)
(-0.028485658 0.0067336171 0)
(-0.029780943 0.0050197019 0)
(-0.030695643 0.0032344235 0)
(-0.031217052 0.0013952094 0)
(-0.031335495 -0.00047997939 0)
(-0.031044376 -0.0023721435 0)
(-0.030340396 -0.0042607338 0)
(-0.029224094 -0.0061231481 0)
(-0.02770052 -0.0079341698 0)
(-0.025780175 -0.0096650599 0)
(-0.0234803 -0.011281501 0)
(-0.020826788 -0.012738562 0)
(-0.017857498 -0.013969375 0)
(-0.01462903 -0.01486325 0)
(-0.011229833 -0.015231458 0)
(-0.0077965865 -0.014769414 0)
(-0.0045312192 -0.013043589 0)
(-0.0017940034 -0.0095514625 0)
(-0.00030837186 -0.003903333 0)
(-0.00032027774 0.004718576 0)
(-0.0018481307 0.011374199 0)
(-0.004645368 0.015397896 0)
(-0.0079628293 0.017353066 0)
(-0.011441186 0.017886504 0)
(-0.014891384 0.017521876 0)
(-0.018191005 0.016604948 0)
(-0.021262858 0.015334651 0)
(-0.024056724 0.013817239 0)
(-0.026536311 0.01211028 0)
(-0.028673207 0.01024898 0)
(-0.030444297 0.0082591665 0)
(-0.031830466 0.006162916 0)
(-0.032815853 0.0039808764 0)
(-0.033387378 0.0017333878 0)
(-0.033534522 -0.00055874504 0)
(-0.033249315 -0.0028735311 0)
(-0.032526561 -0.0051870347 0)
(-0.03136447 -0.0074726192 0)
(-0.029765508 -0.0097001118 0)
(-0.027737619 -0.011834559 0)
(-0.025295914 -0.013833624 0)
(-0.022465113 -0.015641437 0)
(-0.019283567 -0.017174904 0)
(-0.015811076 -0.018297247 0)
(-0.012143543 -0.018776374 0)
(-0.0084310349 -0.018237898 0)
(-0.0048961146 -0.016145821 0)
(-0.0019335878 -0.011867969 0)
(-0.0003300767 -0.0048853107 0)
(-0.00034437454 0.0057335339 0)
(-0.0019926312 0.013746522 0)
(-0.0050122863 0.018552275 0)
(-0.008590949 0.020864422 0)
(-0.012338369 0.02147453 0)
(-0.016049611 0.021014661 0)
(-0.019593036 0.019899199 0)
(-0.022886824 0.018365798 0)
(-0.025878897 0.016541412 0)
(-0.028532566 0.014494953 0)
(-0.030819775 0.012268504 0)
(-0.032718072 0.0098926183 0)
(-0.034208985 0.0073929313 0)
(-0.035276991 0.0047929372 0)
(-0.035908824 0.0021153858 0)
(-0.036093083 -0.00061668371 0)
(-0.03582012 -0.0033789338 0)
(-0.035082257 -0.0061446395 0)
(-0.033874513 -0.0088835838 0)
(-0.032195664 -0.011560832 0)
(-0.030049844 -0.014135016 0)
(-0.02744876 -0.016555034 0)
(-0.024414889 -0.018752594 0)
(-0.020986502 -0.020625876 0)
(-0.017226904 -0.022008112 0)
(-0.013241047 -0.022618045 0)
(-0.0091955316 -0.022003403 0)
(-0.0053381249 -0.019515523 0)
(-0.0021049679 -0.014381793 0)
(-0.00035780563 -0.0059471134 0)
(-0.00037432732 0.0068322099 0)
(-0.0021678771 0.016316664 0)
(-0.005452587 0.021967951 0)
(-0.0093403807 0.024662114 0)
(-0.013404433 0.025349008 0)
(-0.017421181 0.024779652 0)
(-0.021248246 0.023443968 0)
(-0.024798608 0.021622418 0)
(-0.028018401 0.019464947 0)
(-0.030870997 0.017053057 0)
(-0.03332936 0.014436317 0)
(-0.035372446 0.01165016 0)
(-0.036983128 0.0087235847 0)
(-0.038146789 0.00568244 0)
(-0.038850321 0.0025511633 0)
(-0.039081505 -0.00064585521 0)
(-0.038828731 -0.0038828912 0)
(-0.038081169 -0.0071313513 0)
(-0.036829589 -0.010358201 0)
(-0.03506766 -0.013524184 0)
(-0.032793998 -0.016581452 0)
(-0.030015088 -0.019469325 0)
(-0.026749494 -0.022105246 0)
(-0.02303428 -0.024365439 0)
(-0.018936191 -0.026048049 0)
(-0.014570839 -0.026815202 0)
(-0.010125086 -0.026126683 0)
(-0.0058777963 -0.023208908 0)
(-0.0023157802 -0.017136093 0)
(-0.000392546 -0.0071080665 0)
(-0.00041084035 0.0080325368 0)
(-0.0023789065 0.019123821 0)
(-0.0059793397 0.025694219 0)
(-0.010232706 0.028797916 0)
(-0.014668424 0.02955954 0)
(-0.019040953 0.028861804 0)
(-0.023195539 0.027278517 0)
(-0.027039553 0.025137933 0)
(-0.030517718 0.022615829 0)
(-0.033594299 0.019807863 0)
(-0.036244344 0.016771839 0)
(-0.038449338 0.013548241 0)
(-0.040194548 0.010169128 0)
(-0.041467124 0.0066620092 0)
(-0.042254699 0.0030520025 0)
(-0.042544444 -0.00063639104 0)
(-0.042322546 -0.0043774384 0)
(-0.041574269 -0.008142045 0)
(-0.040284844 -0.011895574 0)
(-0.038440991 -0.015595296 0)
(-0.036033483 -0.019187084 0)
(-0.033060963 -0.022599912 0)
(-0.029535494 -0.025734787 0)
(-0.025490913 -0.028441874 0)
(-0.020996694 -0.03047761 0)
(-0.016180626 -0.031437832 0)
(-0.011254314 -0.030681536 0)
(-0.0065353469 -0.02729496 0)
(-0.0025734779 -0.020183603 0)
(-0.00043525491 -0.0083909155 0)
(-0.00045482105 0.0093550461 0)
(-0.002631465 0.022213702 0)
(-0.0066068482 0.029788408 0)
(-0.011291024 0.033331231 0)
(-0.016160775 0.03416188 0)
(-0.020944574 0.033310346 0)
(-0.025473542 0.031444545 0)
(-0.029649284 0.028946648 0)
(-0.033415944 0.026021775 0)
(-0.036740039 0.022781667 0)
(-0.039600302 0.01929327 0)
(-0.041982385 0.015602265 0)
(-0.043875462 0.011743312 0)
(-0.045269707 0.0077446204 0)
(-0.046154385 0.0036306136 0)
(-0.046516498 -0.00057578991 0)
(-0.046339885 -0.0048507881 0)
(-0.045605089 -0.009166742 0)
(-0.044290264 -0.013489282 0)
(-0.042372828 -0.017773681 0)
(-0.039832591 -0.021960255 0)
(-0.036656634 -0.025967095 0)
(-0.032846601 -0.029676345 0)
(-0.028429696 -0.032907015 0)
(-0.023476316 -0.035365232 0)
(-0.01812761 -0.036567813 0)
(-0.012625304 -0.035756205 0)
(-0.007335627 -0.031857029 0)
(-0.002887404 -0.023587894 0)
(-0.00048721911 -0.0098224145 0)
(-0.00050756795 0.010823636 0)
(-0.0029331294 0.025639838 0)
(-0.0073533078 0.034317145 0)
(-0.012544025 0.038329943 0)
(-0.017918466 0.039218187 0)
(-0.023174346 0.038178414 0)
(-0.028126891 0.035985276 0)
(-0.032672205 0.033082435 0)
(-0.036755339 0.029708685 0)
(-0.040347156 0.025994191 0)
(-0.043432398 0.022016073 0)
(-0.046003197 0.017825291 0)
(-0.048054739 0.013458427 0)
(-0.049581989 0.0089430779 0)
(-0.050577153 0.0043011491 0)
(-0.051027843 -0.00044828857 0)
(-0.050915577 -0.0052860489 0)
(-0.050215365 -0.010188648 0)
(-0.048896547 -0.015124761 0)
(-0.046924333 -0.0200501 0)
(-0.044263471 -0.024901009 0)
(-0.040884304 -0.02958475 0)
(-0.036772246 -0.033962141 0)
(-0.031942346 -0.037814853 0)
(-0.026462258 -0.040787538 0)
(-0.020486823 -0.042301041 0)
(-0.014294177 -0.041456928 0)
(-0.0083122046 -0.036996865 0)
(-0.0032703449 -0.027426652 0)
(-0.00055025102 -0.011434728 0)
(-0.00057094451 0.012466838 0)
(-0.0032943361 0.02946605 0)
(-0.0082431842 0.039358844 0)
(-0.014029493 0.043872218 0)
(-0.019989167 0.044797849 0)
(-0.025783579 0.043522898 0)
(-0.031210437 0.040944502 0)
(-0.036161336 0.037577208 0)
(-0.040584683 0.03369879 0)
(-0.044458796 0.02946061 0)
(-0.047777712 0.024951086 0)
(-0.050543204 0.020226387 0)
(-0.052759322 0.015324021 0)
(-0.054428208 0.010269221 0)
(-0.055546856 0.005078966 0)
(-0.056104784 -0.00023451415 0)
(-0.056081486 -0.0056599353 0)
(-0.055445725 -0.011181919 0)
(-0.054156263 -0.01677614 0)
(-0.052162668 -0.022402548 0)
(-0.049409416 -0.027996527 0)
(-0.04584309 -0.03345572 0)
(-0.041424424 -0.038617587 0)
(-0.036147574 -0.043219274 0)
(-0.030070646 -0.046829587 0)
(-0.023360589 -0.048750575 0)
(-0.016338922 -0.047913526 0)
(-0.0095123301 -0.042841201 0)
(-0.0037403907 -0.031797081 0)
(-0.0006268949 -0.013267571 0)
(-0.00064764113 0.014319671 0)
(-0.0037297643 0.033770161 0)
(-0.0093102059 0.045007427 0)
(-0.015798455 0.050049098 0)
(-0.022435846 0.050978563 0)
(-0.028841032 0.049404105 0)
(-0.034793108 0.046365136 0)
(-0.040181359 0.042458742 0)
(-0.044961431 0.038008085 0)
(-0.049123598 0.033188903 0)
(-0.05267572 0.028102007 0)
(-0.055633434 0.022808422 0)
(-0.058013385 0.017345141 0)
(-0.059828055 0.011732711 0)
(-0.061081777 0.0059800264 0)
(-0.061767633 8.8757978e-05 0)
(-0.061864076 -0.0059414487 0)
(-0.061333502 -0.012109066 0)
(-0.060122243 -0.018402295 0)
(-0.058160511 -0.024790977 0)
(-0.055366212 -0.031214732 0)
(-0.051652947 -0.037564931 0)
(-0.046944756 -0.043654999 0)
(-0.041201351 -0.049169831 0)
(-0.034459228 -0.05358422 0)
(-0.026891923 -0.056050531 0)
(-0.018871062 -0.055287467 0)
(-0.01100463 -0.049551806 0)
(-0.0043239081 -0.036824331 0)
(-0.0007207732 -0.015371406 0)
(-0.00074162973 0.0164264 0)
(-0.0042605066 0.038649463 0)
(-0.010601777 0.051377582 0)
(-0.017920973 0.056967895 0)
(-0.025342842 0.057847447 0)
(-0.032436403 0.055884858 0)
(-0.038962298 0.052286855 0)
(-0.044811689 0.047747437 0)
(-0.049953454 0.042642711 0)
(-0.054396217 0.037176217 0)
(-0.058167763 0.031462009 0)
(-0.061303068 0.025565112 0)
(-0.063836133 0.019519949 0)
(-0.065793876 0.013339414 0)
(-0.067191199 0.007020633 0)
(-0.068026647 0.00055022329 0)
(-0.068279929 -0.0060899579 0)
(-0.067908189 -0.01291794 0)
(-0.066843524 -0.019942021 0)
(-0.064993213 -0.027150367 0)
(-0.062241604 -0.034495351 0)
(-0.058457751 -0.041869067 0)
(-0.053512432 -0.049063307 0)
(-0.047310346 -0.05570376 0)
(-0.039845654 -0.061149076 0)
(-0.031285203 -0.064360199 0)
(-0.02205471 -0.063783149 0)
(-0.012892277 -0.057340837 0)
(-0.0050608744 -0.042674863 0)
(-0.00083727597 -0.017812489 0)
(-0.00085898908 0.018844798 0)
(-0.0049176604 0.044228821 0)
(-0.012185819 0.058612087 0)
(-0.020494629 0.064756407 0)
(-0.028824226 0.065501795 0)
(-0.03668739 0.063028461 0)
(-0.043829035 0.058742232 0)
(-0.050149631 0.053451496 0)
(-0.055640318 0.047593852 0)
(-0.060336981 0.041403939 0)
(-0.064295345 0.035009248 0)
(-0.06757662 0.028477096 0)
(-0.070237945 0.021836424 0)
(-0.07232545 0.015088728 0)
(-0.073868697 0.0082149742 0)
(-0.07487581 0.0011813496 0)
(-0.075329952 -0.0060550606 0)
(-0.075184352 -0.013539002 0)
(-0.07435782 -0.021308557 0)
(-0.072732179 -0.029381985 0)
(-0.070151227 -0.037737631 0)
(-0.066425996 -0.046281208 0)
(-0.061352159 -0.054791335 0)
(-0.054749063 -0.062831244 0)
(-0.046533876 -0.069618489 0)
(-0.036838732 -0.073866967 0)
(-0.026138705 -0.073663342 0)
(-0.015336591 -0.066494646 0)
(-0.0060151004 -0.049578442 0)
(-0.00098508985 -0.020681395 0)
(-0.0010094581 0.021652989 0)
(-0.0057484162 0.050672861 0)
(-0.014161492 0.066891898 0)
(-0.023656884 0.073567751 0)
(-0.033035054 0.074048736 0)
(-0.041748288 0.070894601 0)
(-0.049533383 0.065750465 0)
(-0.056312656 0.059559781 0)
(-0.062112871 0.0528306 0)
(-0.067009301 0.045831084 0)
(-0.071095858 0.038701004 0)
(-0.074468325 0.031506892 0)
(-0.077213717 0.024268102 0)
(-0.079402935 0.016970052 0)
(-0.081085057 0.0095723103 0)
(-0.082282284 0.0020147451 0)
(-0.082985369 -0.0057767152 0)
(-0.083147432 -0.013883072 0)
(-0.08267685 -0.022383909 0)
(-0.08143029 -0.031343016 0)
(-0.079206185 -0.040784136 0)
(-0.075743975 -0.050648516 0)
(-0.070737531 -0.060721027 0)
(-0.063878068 -0.07050878 0)
(-0.05494967 -0.079064728 0)
(-0.043994684 -0.084784315 0)
(-0.031510804 -0.085269131 0)
(-0.018600084 -0.077411152 0)
(-0.0072946319 -0.057865827 0)
(-0.0011798514 -0.024108686 0)
(-0.001209448 0.024960897 0)
(-0.0068264992 0.058204437 0)
(-0.016675754 0.076449596 0)
(-0.027602279 0.083584931 0)
(-0.038185071 0.083602159 0)
(-0.04781836 0.079531409 0)
(-0.056247246 0.073307168 0)
(-0.063436274 0.066031163 0)
(-0.069467083 0.058289957 0)
(-0.074470416 0.050385453 0)
(-0.078590976 0.04246612 0)
(-0.081968707 0.034592486 0)
(-0.084727811 0.026768622 0)
(-0.086969843 0.018958191 0)
(-0.088768677 0.011093733 0)
(-0.090165852 0.0030828876 0)
(-0.091165578 -0.0051864968 0)
(-0.091727522 -0.013840857 0)
(-0.091756386 -0.023014478 0)
(-0.091089216 -0.03283584 0)
(-0.089480013 -0.043400975 0)
(-0.086587201 -0.054721324 0)
(-0.081974744 -0.066625762 0)
(-0.075149902 -0.078592078 0)
(-0.065677251 -0.08949759 0)
(-0.053407214 -0.097335221 0)
(-0.038783872 -0.099041322 0)
(-0.023123106 -0.090657322 0)
(-0.0090926177 -0.068034749 0)
(-0.00145293 -0.028295821 0)
(-0.0014879661 0.028929959 0)
(-0.0082699391 0.067132345 0)
(-0.019947676 0.087585863 0)
(-0.032603542 0.095022457 0)
(-0.044550727 0.0942734 0)
(-0.055143127 0.088960384 0)
(-0.064165638 0.081367501 0)
(-0.07165691 0.072778318 0)
(-0.07778038 0.063862499 0)
(-0.082742786 0.054951519 0)
(-0.086754341 0.046194924 0)
(-0.090009339 0.037638856 0)
(-0.092676249 0.029264284 0)
(-0.094892664 0.021006375 0)
(-0.096762232 0.012764931 0)
(-0.098351502 0.0044101092 0)
(-0.099685444 -0.0042142367 0)
(-0.10074023 -0.013287502 0)
(-0.1014291 -0.023011642 0)
(-0.10158345 -0.033600987 0)
(-0.10092501 -0.045257915 0)
(-0.099034116 -0.058114634 0)
(-0.095324816 -0.072109601 0)
(-0.089057964 -0.086756574 0)
(-0.079456483 -0.10078259 0)
(-0.066002384 -0.11169865 0)
(-0.048909018 -0.11552896 0)
(-0.029647063 -0.10705009 0)
(-0.011765086 -0.08086323 0)
(-0.0018716195 -0.033577764 0)
(-0.0018981687 0.033807712 0)
(-0.010270243 0.077891254 0)
(-0.024299907 0.10068538 0)
(-0.039028646 0.1081179 0)
(-0.052470553 0.10614807 0)
(-0.063987923 0.099147467 0)
(-0.073461315 0.089817311 0)
(-0.081051332 0.079641893 0)
(-0.087039316 0.069370628 0)
(-0.091732828 0.059352685 0)
(-0.095423431 0.049724798 0)
(-0.098369178 0.040505848 0)
(-0.10078817 0.031643157 0)
(-0.10285745 0.023035583 0)
(-0.10471378 0.014544884 0)
(-0.10645361 0.0060001576 0)
(-0.10813014 -0.0028019714 0)
(-0.10974921 -0.01209709 0)
(-0.11125085 -0.022164632 0)
(-0.11248555 -0.033323554 0)
(-0.11317289 -0.045919955 0)
(-0.11284282 -0.060272853 0)
(-0.1107668 -0.076532351 0)
(-0.10591242 -0.094377097 0)
(-0.097015232 -0.11249025 0)
(-0.08291614 -0.12787577 0)
(-0.063241017 -0.13534318 0)
(-0.039362937 -0.12774516 0)
(-0.015960507 -0.09759032 0)
(-0.0025813535 -0.04054612 0)
(-0.0025392602 0.039988313 0)
(-0.013136652 0.091093478 0)
(-0.030186979 0.1162193 0)
(-0.047326466 0.12309615 0)
(-0.062281741 0.11923257 0)
(-0.074529971 0.10994659 0)
(-0.084140158 0.098421429 0)
(-0.091463126 0.086346622 0)
(-0.096943797 0.074532888 0)
(-0.1010181 0.063322781 0)
(-0.1040735 0.052817208 0)
(-0.10643784 0.042988871 0)
(-0.1083799 0.033737561 0)
(-0.11011515 0.024916959 0)
(-0.11181281 0.016346479 0)
(-0.113601 0.0078139045 0)
(-0.1155657 -0.00092848953 0)
(-0.11775668 -0.010175598 0)
(-0.12016315 -0.02027891 0)
(-0.12268897 -0.031672591 0)
(-0.12510332 -0.044877611 0)
(-0.12695128 -0.060471749 0)
(-0.12742491 -0.078954367 0)
(-0.12521507 -0.10038527 0)
(-0.11845709 -0.12365801 0)
(-0.10500792 -0.14540633 0)
(-0.08329593 -0.15895252 0)
(-0.053939086 -0.15425081 0)
(-0.02277995 -0.12015698 0)
(-0.0038819157 -0.050276813 0)
(-0.0035963064 0.04811646 0)
(-0.017353789 0.10757881 0)
(-0.038183399 0.13469768 0)
(-0.057907611 0.14006616 0)
(-0.074095967 0.13333548 0)
(-0.086545943 0.12098764 0)
(-0.095658978 0.10672735 0)
(-0.10206713 0.092422702 0)
(-0.10643145 0.078901568 0)
(-0.10934179 0.066456984 0)
(-0.11128963 0.055118563 0)
(-0.11267032 0.044786351 0)
(-0.11379573 0.035294907 0)
(-0.11491032 0.026442949 0)
(-0.11620673 0.018004674 0)
(-0.11783806 0.0097295787 0)
(-0.11992797 0.0013327486 0)
(-0.12257029 -0.0075258759 0)
(-0.12582185 -0.017256865 0)
(-0.12968111 -0.028401259 0)
(-0.13403143 -0.041661678 0)
(-0.13853716 -0.05792741 0)
(-0.14245444 -0.078193738 0)
(-0.1443465 -0.10320006 0)
(-0.14179709 -0.13251408 0)
(-0.131422 -0.16287079 0)
(-0.10964386 -0.18610975 0)
(-0.075023988 -0.18809757 0)
(-0.033841267 -0.15136899 0)
(-0.0063422126 -0.064710961 0)
(-0.0054090566 0.059258886 0)
(-0.023633711 0.12841204 0)
(-0.048833068 0.15648284 0)
(-0.070752204 0.15876408 0)
(-0.087199232 0.14781363 0)
(-0.098650562 0.13145558 0)
(-0.10604506 0.11388497 0)
(-0.11040453 0.097064134 0)
(-0.11265482 0.081753806 0)
(-0.11355133 0.068128667 0)
(-0.11368023 0.056095999 0)
(-0.11348462 0.045448334 0)
(-0.11329567 0.035933826 0)
(-0.11336294 0.027286226 0)
(-0.11388082 0.019233655 0)
(-0.11501003 0.011494016 0)
(-0.11689314 0.0037583616 0)
(-0.11965873 -0.0043335181 0)
(-0.12344331 -0.013221494 0)
(-0.12835651 -0.023521354 0)
(-0.13444843 -0.036080884 0)
(-0.14161832 -0.05209556 0)
(-0.14939745 -0.073146329 0)
(-0.15654968 -0.10095251 0)
(-0.16049432 -0.13640159 0)
(-0.15678946 -0.17729158 0)
(-0.13926547 -0.21471825 0)
(-0.10253925 -0.22964738 0)
(-0.050929259 -0.19447266 0)
(-0.010944047 -0.087091329 0)
(-0.0085766585 0.075158231 0)
(-0.03289178 0.15468956 0)
(-0.062130942 0.18128182 0)
(-0.084402581 0.17798943 0)
(-0.098683016 0.16107249 0)
(-0.10668457 0.13968696 0)
(-0.11013279 0.11833759 0)
(-0.11053596 0.098901077 0)
(-0.10909796 0.081928687 0)
(-0.10670859 0.067374955 0)
(-0.10399872 0.054957254 0)
(-0.10140461 0.044319316 0)
(-0.099224817 0.035101082 0)
(-0.097667426 0.026963662 0)
(-0.09688777 0.019591741 0)
(-0.097018392 0.012682873 0)
(-0.098189945 0.0059269649 0)
(-0.10052931 -0.0010266522 0)
(-0.10423085 -0.0086358369 0)
(-0.10950425 -0.0174989 0)
(-0.11656564 -0.028530885 0)
(-0.12561467 -0.043139276 0)
(-0.13665261 -0.063431121 0)
(-0.14908719 -0.092224428 0)
(-0.1609693 -0.13232145 0)
(-0.16784237 -0.18394567 0)
(-0.16150243 -0.23941791 0)
(-0.13114221 -0.27569643 0)
(-0.074495706 -0.2512107 0)
(-0.019128105 -0.1217642 0)
(-0.014031485 0.09853884 0)
(-0.045872356 0.18677362 0)
(-0.076091687 0.20698345 0)
(-0.093693605 0.19453637 0)
(-0.10070309 0.1697354 0)
(-0.10076916 0.14258063 0)
(-0.096586784 0.11743744 0)
(-0.090138523 0.095772303 0)
(-0.082802476 0.077709992 0)
(-0.075465853 0.062851459 0)
(-0.068669952 0.050649316 0)
(-0.062728088 0.040561514 0)
(-0.057811044 0.032107062 0)
(-0.054009445 0.024876607 0)
(-0.051378175 0.018522018 0)
(-0.049967591 0.01273614 0)
(-0.049845864 0.0072269731 0)
(-0.051129486 0.0016804147 0)
(-0.05397513 -0.0043150111 0)
(-0.058623858 -0.011297336 0)
(-0.065429269 -0.020130067 0)
(-0.074848494 -0.032245471 0)
(-0.087405078 -0.050005259 0)
(-0.10349116 -0.077040655 0)
(-0.12271342 -0.11813496 0)
(-0.14245287 -0.17708979 0)
(-0.15502338 -0.25063445 0)
(-0.14535606 -0.31618261 0)
(-0.099663765 -0.31797969 0)
(-0.031988739 -0.17320477 0)
(-0.022639357 0.13366247 0)
(-0.061341312 0.22189952 0)
(-0.082883691 0.22701485 0)
(-0.08493546 0.20130547 0)
(-0.075577457 0.1675201 0)
(-0.06077857 0.13505541 0)
(-0.043958007 0.10730866 0)
(-0.027202938 0.084837203 0)
(-0.011673135 0.067064951 0)
(0.0020956513 0.053117692 0)
(0.013924255 0.042144962 0)
(0.023820748 0.0334212 0)
(0.031882621 0.026366516 0)
(0.03823386 0.020529625 0)
(0.042987725 0.015557924 0)
(0.046224689 0.011164646 0)
(0.047977181 0.0070961629 0)
(0.048212302 0.0030954594 0)
(0.046828708 -0.0011362136 0)
(0.043614101 -0.0060509948 0)
(0.038190367 -0.012348651 0)
(0.029948905 -0.021259876 0)
(0.01796703 -0.034965539 0)
(0.00085496853 -0.057182665 0)
(-0.02301869 -0.093685253 0)
(-0.054524147 -0.15163215 0)
(-0.090307236 -0.23498329 0)
(-0.11683623 -0.33059265 0)
(-0.11025828 -0.37998118 0)
(-0.04730834 -0.24792752 0)
(-0.032178713 0.18765357 0)
(-0.068903296 0.24859392 0)
(-0.057976776 0.2248467 0)
(-0.025644853 0.18435922 0)
(0.01226481 0.14420279 0)
(0.049206795 0.11007896 0)
(0.082577683 0.083384976 0)
(0.11133042 0.063299938 0)
(0.13541036 0.048378972 0)
(0.15525338 0.037299527 0)
(0.17143248 0.02900803 0)
(0.18450472 0.022702771 0)
(0.1949589 0.01779742 0)
(0.203196 0.013873796 0)
(0.20952543 0.010631701 0)
(0.21416975 0.0078458991 0)
(0.21726972 0.0053313526 0)
(0.21888249 0.0029124827 0)
(0.21896905 0.00039157183 0)
(0.21738765 -0.0025178378 0)
(0.21379444 -0.0062864058 0)
(0.20754206 -0.011762928 0)
(0.19747332 -0.020521547 0)
(0.18155397 -0.035470792 0)
(0.1564575 -0.061627682 0)
(0.11759228 -0.10694818 0)
(0.061629898 -0.1813722 0)
(-0.0084073696 -0.28967291 0)
(-0.075597566 -0.40010563 0)
(-0.053061323 -0.34529584 0)
(-0.015928351 0.25257986 0)
(-0.018116737 0.23957433 0)
(0.069289006 0.17450817 0)
(0.1559635 0.12690873 0)
(0.22726564 0.090687113 0)
(0.28439795 0.06347674 0)
(0.32949812 0.044415462 0)
(0.36446714 0.031557252 0)
(0.39140063 0.022881176 0)
(0.41222619 0.016946752 0)
(0.42843452 0.012812098 0)
(0.4411138 0.0098518016 0)
(0.45105598 0.0076548949 0)
(0.45883292 0.0059581823 0)
(0.46484994 0.0045920321 0)
(0.46938666 0.0034407611 0)
(0.47262383 0.0024159294 0)
(0.47465513 0.0014368049 0)
(0.47548409 0.00041444395 0)
(0.47501889 -0.00076738181 0)
(0.47297117 -0.0023438262 0)
(0.46876367 -0.0047162206 0)
(0.46128169 -0.008639723 0)
(0.44840401 -0.015583231 0)
(0.42619927 -0.028369591 0)
(0.38791952 -0.05242292 0)
(0.32409576 -0.097882792 0)
(0.22110062 -0.18191907 0)
(0.061901409 -0.31673508 0)
(0.003347345 -0.38417159 0)
(0.23773968 0.14766208 0)
(0.3335934 0.13232158 0)
(0.4807865 0.082570139 0)
(0.59308219 0.050557788 0)
(0.66198433 0.031238171 0)
(0.70610132 0.018996715 0)
(0.73609706 0.011472967 0)
(0.75667293 0.0070568384 0)
(0.77094093 0.0044999924 0)
(0.78115013 0.0030047179 0)
(0.78870716 0.0021109392 0)
(0.7944444 0.0015542389 0)
(0.79887424 0.0011837823 0)
(0.80232296 0.00091667354 0)
(0.8049996 0.00070819264 0)
(0.80703781 0.00053294396 0)
(0.80851934 0.00037393606 0)
(0.8094839 0.0002162521 0)
(0.80993024 4.3652531e-05 0)
(0.80978811 -0.00016261424 0)
(0.80888773 -0.00046341086 0)
(0.80691262 -0.00094913876 0)
(0.80321699 -0.0017872719 0)
(0.79653692 -0.0033130191 0)
(0.78440687 -0.0062085803 0)
(0.76201796 -0.011933433 0)
(0.71994268 -0.023903576 0)
(0.63428927 -0.051234392 0)
(0.45956579 -0.11385652 0)
(0.34214047 -0.17962895 0)
)
;

boundaryField
{
    movingWall
    {
        type            fixedValue;
        value           uniform (1 0 0);
    }
    fixedWalls
    {
        type            noSlip;
    }
    frontAndBack
    {
        type            empty;
    }
}


// ************************************************************************* //
